  Input file(s): vmc.in.xml 

=====================================================
                    QMCPACK 3.11.9

       (c) Copyright 2003-  QMCPACK developers

                    Please cite:
 J. Kim et al. J. Phys. Cond. Mat. 30 195901 (2018)
      https://doi.org/10.1088/1361-648X/aab9c3

  Git branch: develop
  Last git commit: 1e04b4793bbdadcd1bcdf36287c3837f2cf87452-dirty
  Last git commit date: Thu Oct 7 17:34:02 2021 -0500
  Last git commit subject: Merge pull request #3518 from williamfgc/ci-afqmc-docs
=====================================================
  Global options 

  Total number of MPI ranks = 16
  Number of MPI groups      = 1
  MPI group ID              = 0
  Number of ranks in group  = 16
  MPI ranks per node        = 16
  OMP 1st level threads     = 1
  OMP nested threading disabled or only 1 thread on the 2nd level

  Precision used in this calculation, see definitions in the manual:
  Base precision      = double
  Full precision      = double

  CPU only build
  Timer build option is enabled. Current timer level is coarse

  Input XML = vmc.in.xml

  Project = vmc
  date    = 2021-10-20 13:31:09 CDT
  host    = abenali


 Random Number
 -------------
  Offset for the random number seeds from input file (mod 1024): 42

  Range of prime numbers to use as seeds over processors and threads = 193-281


 Lattice
 -------
  Lattice is not specified for the Open BC. Add a huge box.
  Simulation cell radius   = 5000000000.000000 bohr
  Wigner-Seitz cell radius = 5000000000.000000 bohr


 Particle Set
 ------------
  Name: ion0   Offload : 

  Initializing the lattice by the global supercell
  All the species have the same mass 1.000000
  Particle set size: 2


 Particle Set
 ------------
  Name: e   Offload : 

  Initializing the lattice by the global supercell
  All the species have the same mass 1.000000
  Particle set size: 8


 Many-body wavefunction
 -------------------
  Name: psi0   Tasking: no

WARNING !!!!!!! Deprecated input style: creating SPO set inside determinantset. Support for this usage will soon be removed. SPO sets should be built outside.
WARNING !!!!!!! Deprecated input style: missing basisset element. LCAO needs an explicit basisset XML element. Fallback on loading an implicit one.
  LCAO: SoaAtomicBasisSet<MultiQuintic,1>
Reading BasisSet from HDF5 file:../SCF/scf.h5
<input node="atomicBasisSet" name="gaussia" expandYlm="pyscf" angular="spherical" elementType="Be" normalized="no" type="Numerical" expM="1" />
  AO BasisSet for Be
   Spherical Harmonics contain (-1)^m factor
   Angular momentum m expanded as -l, ... ,l, with the exception of L=1 (1,-1,0)
   Grid is created by the input parameters in h5
    Using log grid ri = 0.000001 rf = 100.000000 npts = 1001
   R(n,l,m,s) 0 0 0 0
   R(n,l,m,s) 1 0 0 0
   R(n,l,m,s) 2 0 0 0
   R(n,l,m,s) 3 0 0 0
   R(n,l,m,s) 4 1 0 0
   R(n,l,m,s) 5 1 0 0
   R(n,l,m,s) 6 1 0 0
   R(n,l,m,s) 7 2 0 0
   R(n,l,m,s) 8 2 0 0
   R(n,l,m,s) 9 3 0 0
Expanding Ylm as L=1 as (1,-1,0) and L>1 as -l,-l+1,...,l-1,l
   Adding 1 spherical orbitals
   Adding 1 spherical orbitals
   Adding 1 spherical orbitals
   Adding 1 spherical orbitals
   Adding 3 spherical orbitals
   Adding 3 spherical orbitals
   Adding 3 spherical orbitals
   Adding 5 spherical orbitals
   Adding 5 spherical orbitals
   Adding 7 spherical orbitals
  Setting cutoff radius 512286019.354503

   Maximum Angular Momentum  = 3
   Number of Radial functors = 10
   Basis size                = 30

  Created SPOSet builder named 'LCAOBSet' of type molecularorbital

   Single Slater determinant
   -------------------------

     Determinant
     -----------
      Name: updet   Spin group: 0   SPO name: updet

WARNING !!!!!!! Deprecated input style: creating SPO set inside determinantset. Support for this usage will soon be removed. SPO sets should be built outside.
      Create a new SPO set updet

     Single particle orbitals (SPO)
     ------------------------------
      Name:    Type: LCAO   Builder class name: LCAOrbitalBuilder

WARNING SPOSet object name not given in the input!
        Using cusp correction.
Reading cusp info from : ../SCF/updet.cuspInfo.xml
Found precomputed cusp data for spo set: updet
WARNING SPOSet object doesn't have a name.
      Setting delay_rank to default value 1
      Using rank-1 Sherman-Morrison Fahy update (SM1)
      Running on CPU.


     Determinant
     -----------
      Name: downdet   Spin group: 1   SPO name: downdet

WARNING !!!!!!! Deprecated input style: creating SPO set inside determinantset. Support for this usage will soon be removed. SPO sets should be built outside.
      Create a new SPO set downdet

     Single particle orbitals (SPO)
     ------------------------------
      Name:    Type: LCAO   Builder class name: LCAOrbitalBuilder

WARNING SPOSet object name not given in the input!
        Using cusp correction.
Reading cusp info from : ../SCF/downdet.cuspInfo.xml
Found precomputed cusp data for spo set: downdet
WARNING SPOSet object doesn't have a name.
      Setting delay_rank to default value 1
      Using rank-1 Sherman-Morrison Fahy update (SM1)
      Running on CPU.

  Added a fermionic WaveFunctionComponent SlaterDet

   Jastrow
   -------
    Name: J1   Type: One-Body   Function: bspline

    Radial function for element: Be - e
     Number of parameters: 12
     Cusp: 0.000000
     Cutoff radius: 6.000000

       Name                        Value Type Recompute Use Index
     ------ ---------------------------- ---- --------- --- -----
      eBe_0                -1.340131e+00    1         1  ON     0
      eBe_1                -1.227715e+00    1         1  ON     1
      eBe_2                -1.052016e+00    1         1  ON     2
      eBe_3                -9.267485e-01    1         1  ON     3
      eBe_4                -7.838554e-01    1         1  ON     4
      eBe_5                -5.496012e-01    1         1  ON     5
      eBe_6                -4.708138e-01    1         1  ON     6
      eBe_7                -3.693505e-01    1         1  ON     7
      eBe_8                -2.792341e-01    1         1  ON     8
      eBe_9                -1.978505e-01    1         1  ON     9
     eBe_10                -1.226598e-01    1         1  ON    10
     eBe_11                -6.095423e-02    1         1  ON    11


   Jastrow
   -------
    Name: J2   Type: Two-Body   Function: bspline

    Radial function for species: u - u
     Number of parameters: 16
     Cusp: -0.25
     Cutoff radius: 8

      Name                        Value Type Recompute Use Index
     ----- ---------------------------- ---- --------- --- -----
      uu_0                 3.260099e-01    1         1  ON     0
      uu_1                 2.534090e-01    1         1  ON     1
      uu_2                 1.948356e-01    1         1  ON     2
      uu_3                 1.476579e-01    1         1  ON     3
      uu_4                 1.127403e-01    1         1  ON     4
      uu_5                 8.986962e-02    1         1  ON     5
      uu_6                 7.230771e-02    1         1  ON     6
      uu_7                 5.334197e-02    1         1  ON     7
      uu_8                 3.577365e-02    1         1  ON     8
      uu_9                 2.009799e-02    1         1  ON     9
     uu_10                 6.122427e-03    1         1  ON    10
     uu_11                -6.855419e-03    1         1  ON    11
     uu_12                -1.582439e-02    1         1  ON    12
     uu_13                -1.280100e-02    1         1  ON    13
     uu_14                -9.222459e-03    1         1  ON    14
     uu_15                -7.030738e-03    1         1  ON    15

    Radial function for species: u - d
     Number of parameters: 16
     Cusp: -0.5
     Cutoff radius: 8

      Name                        Value Type Recompute Use Index
     ----- ---------------------------- ---- --------- --- -----
      ud_0                 9.709929e-01    1         1  ON     0
      ud_1                 7.594290e-01    1         1  ON     1
      ud_2                 5.805701e-01    1         1  ON     2
      ud_3                 4.496376e-01    1         1  ON     3
      ud_4                 3.509991e-01    1         1  ON     4
      ud_5                 2.961840e-01    1         1  ON     5
      ud_6                 2.547398e-01    1         1  ON     6
      ud_7                 2.103554e-01    1         1  ON     7
      ud_8                 1.696818e-01    1         1  ON     8
      ud_9                 1.322823e-01    1         1  ON     9
     ud_10                 1.010841e-01    1         1  ON    10
     ud_11                 7.119207e-02    1         1  ON    11
     ud_12                 4.751899e-02    1         1  ON    12
     ud_13                 3.609717e-02    1         1  ON    13
     ud_14                 2.432036e-02    1         1  ON    14
     ud_15                 1.515467e-02    1         1  ON    15


   Jastrow
   -------
    Name: J3   Type: eeI   Function: polynomial

     Ion: Be   electron-electron: u - u
      Number of parameters for e-e: 3, for e-I: 3
      Cutoff radius: 5

         Name                        Value Type Recompute Use Index
      ------- ---------------------------- ---- --------- --- -----
       uuBe_0                -4.658591e-03    1         1  ON     0
       uuBe_1                -4.675657e-04    1         1  ON     1
       uuBe_2                 1.626277e-02    1         1  ON     2
       uuBe_3                 2.234056e-03    1         1  ON     3
       uuBe_4                -3.414915e-03    1         1  ON     4
       uuBe_5                 4.020528e-04    1         1  ON     5
       uuBe_6                 6.284545e-03    1         1  ON     6
       uuBe_7                 2.946549e-03    1         1  ON     7
       uuBe_8                 1.993408e-02    1         1  ON     8
       uuBe_9                -2.386060e-03    1         1  ON     9
      uuBe_10                 2.980641e-03    1         1  ON    10
      uuBe_11                -1.574731e-02    1         1  ON    11
      uuBe_12                -5.497913e-03    1         1  ON    12
      uuBe_13                 1.161359e-03    1         1  ON    13
      uuBe_14                 1.912819e-03    1         1  ON    14
      uuBe_15                 7.603141e-04    1         1  ON    15
      uuBe_16                 2.367925e-03    1         1  ON    16
      uuBe_17                -3.215460e-03    1         1  ON    17
      uuBe_18                 6.839294e-04    1         1  ON    18
      uuBe_19                 2.019439e-03    1         1  ON    19
      uuBe_20                 9.410372e-04    1         1  ON    20
      uuBe_21                 7.640818e-03    1         1  ON    21
      uuBe_22                -2.618273e-03    1         1  ON    22
      uuBe_23                 1.040967e-03    1         1  ON    23
      uuBe_24                -5.533876e-03    1         1  ON    24
      uuBe_25                 2.144409e-03    1         1  ON    25

     Ion: Be   electron-electron: u - d
      Number of parameters for e-e: 3, for e-I: 3
      Cutoff radius: 5

         Name                        Value Type Recompute Use Index
      ------- ---------------------------- ---- --------- --- -----
       udBe_0                -1.132968e-03    1         1  ON     0
       udBe_1                -2.342808e-03    1         1  ON     1
       udBe_2                 1.419106e-02    1         1  ON     2
       udBe_3                -2.285336e-03    1         1  ON     3
       udBe_4                -3.120904e-03    1         1  ON     4
       udBe_5                -2.345199e-04    1         1  ON     5
       udBe_6                -2.687689e-04    1         1  ON     6
       udBe_7                -3.210650e-03    1         1  ON     7
       udBe_8                 3.102797e-02    1         1  ON     8
       udBe_9                 1.809893e-03    1         1  ON     9
      udBe_10                 2.498981e-03    1         1  ON    10
      udBe_11                -1.914964e-02    1         1  ON    11
      udBe_12                -1.669154e-02    1         1  ON    12
      udBe_13                 9.471895e-04    1         1  ON    13
      udBe_14                 1.105277e-02    1         1  ON    14
      udBe_15                 1.834943e-03    1         1  ON    15
      udBe_16                 2.106296e-03    1         1  ON    16
      udBe_17                 8.257679e-03    1         1  ON    17
      udBe_18                 1.555128e-02    1         1  ON    18
      udBe_19                 7.073344e-03    1         1  ON    19
      udBe_20                -1.132084e-02    1         1  ON    20
      udBe_21                 4.695618e-04    1         1  ON    21
      udBe_22                -1.637265e-03    1         1  ON    22
      udBe_23                 1.117685e-02    1         1  ON    23
      udBe_24                -5.108958e-03    1         1  ON    24
      udBe_25                 1.160804e-03    1         1  ON    25

  QMCHamiltonian::addOperator Kinetic to H, physical Hamiltonian 

 Hamiltonian and observables
 ---------------------------
  Name: h0

  QMCHamiltonian::addOperator ElecElec to H, physical Hamiltonian 
QMCHamiltonian::addOperatorType added type coulomb named ElecElec
  QMCHamiltonian::addOperator IonIon to H, physical Hamiltonian 
QMCHamiltonian::addOperatorType added type coulomb named IonIon
  QMCHamiltonian::addOperator ElecIon to H, physical Hamiltonian 
QMCHamiltonian::addOperatorType added type coulomb named ElecIon

  QMCHamiltonian::add2WalkerProperty added
    4 to P::PropertyList 
    0 to P::Collectables 
    starting Index of the observables in P::PropertyList = 9
ParticleSetPool::randomize 1 ParticleSet.
<init source="ion0" target="e">
</init>
  Initialization Execution time = 0.1139 secs
=========================================================
 Summary of QMC systems 
=========================================================
ParticleSetPool has: 

  ParticleSet 'e' contains 8 particles :  u(4) d(4)

    u  5.4567462879e-01  1.1988757063e+00 -9.0826000696e-01
    u -1.4692950359e+00 -1.0839144827e-01 -6.2403797277e-01
    u  5.8961737838e+00 -3.2605087954e-01 -9.3126776613e-01
    u  5.4250078088e+00  6.2887151030e-01  1.2421727655e+00
    d  1.2294858156e+00  7.3690730451e-01 -7.1086725473e-01
    d -3.4676133570e-01 -1.3269143703e+00  8.2404783227e-01
    d  4.6578601194e+00 -1.2450998705e+00 -1.0046272547e+00
    d  3.1715465712e+00  6.1079977841e-01  2.0107621546e-01

  Distance table for dissimilar particles (A-B):
    source: ion0  target: e
    Using structure-of-arrays (SoA) data layout
    Distance computations use open boundary conditions in 3D.

  Distance table for similar particles (A-A):
    source/target: e
    Using structure-of-arrays (SoA) data layout
    Distance computations use open boundary conditions in 3D.


  ParticleSet 'ion0' contains 2 particles :  Be(2)

    Be  0.0000000000e+00  0.0000000000e+00  0.0000000000e+00
    Be  4.6366376900e+00  0.0000000000e+00  0.0000000000e+00

  Distance table for similar particles (A-A):
    source/target: ion0
    Using structure-of-arrays (SoA) data layout
    Distance computations use open boundary conditions in 3D.


  Hamiltonian h0
  Kinetic         Kinetic energy
  ElecElec        CoulombAB source=e

  IonIon          CoulombAA source/target ion0

  ElecIon         CoulombAA source/target ion0



=========================================================
  Start VMC
  File Root vmc.s000 append = no 
=========================================================
Resetting walkers
  Adding 1 walkers to 0 existing sets
  Total number of walkers: 1.6000000000e+01
  Total weight: 1.6000000000e+01
  Resetting Properties of the walkers 1 x 13

<vmc function="put">
  qmc_counter=0  my_counter=0
  time step      = 1.0000000000e-01
  blocks         = 400
  steps          = 20
  substeps       = 3
  current        = 0
  target samples = 0.0000000000e+00
  walkers/mpi    = 1

  stepsbetweensamples = 8020
<parameter name="blocks">400</parameter>
<parameter name="blocks_between_recompute">0</parameter>
<parameter name="check_properties">100</parameter>
<parameter name="checkproperties">100</parameter>
<parameter name="current">0</parameter>
<parameter name="dmcwalkersperthread">0.0000000000e+00</parameter>
<parameter name="max_seconds">360000</parameter>
<parameter name="maxcpusecs">360000</parameter>
<parameter name="record_configs">0</parameter>
<parameter name="record_walkers">8020</parameter>
<parameter name="recordconfigs">0</parameter>
<parameter name="recordwalkers">8020</parameter>
<parameter name="samples">0.0000000000e+00</parameter>
<parameter name="samplesperthread">0.0000000000e+00</parameter>
<parameter name="spinmass">1.0000000000e+00</parameter>
<parameter name="steps">20</parameter>
<parameter name="stepsbetweensamples">8020</parameter>
<parameter name="store_configs">0</parameter>
<parameter name="storeconfigs">0</parameter>
<parameter name="sub_steps">3</parameter>
<parameter name="substeps">3</parameter>
<parameter name="tau">1.0000000000e-01</parameter>
<parameter name="time_step">1.0000000000e-01</parameter>
<parameter name="timestep">1.0000000000e-01</parameter>
<parameter name="use_drift">yes</parameter>
<parameter name="usedrift">yes</parameter>
<parameter name="walkers">1</parameter>
<parameter name="warmup_steps">30</parameter>
<parameter name="warmupsteps">30</parameter>
  DumpConfig==false Nothing (configurations, state) will be saved.
  Walker Samples are dumped every 8020 steps.
</vmc>
  Set drift_modifier UNR parameter a = 1.0000000000e+00
  Adding a default LocalEnergyEstimator for the MainEstimator 
  Initial partition of walkers 0 1 

  Using Particle by Particle moves
  Walker moves with drift
  Total Sample Size   =0
  Walker distribution on root = 0 1 
========================================================================
--- Memory usage report : Memory Usage after the buffer registration ---
========================================================================
Available memory on node 0, free + buffers :   18850 MiB
Memory footprint by rank 0 on node 0       :      91 MiB
========================================================================
  Anonymous Buffer size per walker : 19232 Bytes.
MEMORY increase 0 MB VMC::resetRun
====================================================
  SimpleFixedNodeBranch::finalize after a VMC block
    QMC counter        = 0
    time step          = 0.1
    reference energy   = -29.282
    reference variance = 0.264143
====================================================
  QMC Execution time = 2.1880e+00 secs
  Total Execution time = 2.1999e+00 secs

=========================================================
  A new xml input file : vmc.s000.cont.xml

Use --enable-timers=<value> command line option to increase or decrease level of timing information
Stack timer profile
Timer      Inclusive_time  Exclusive_time  Calls       Time_per_call
Total         2.3139     0.0000              1       2.313900948
  Startup     0.1140     0.1140              1       0.113981962
  VMC         2.1999     2.1999              1       2.199878216

QMCPACK execution completed successfully
