#INFO: **** input file is /home/abenali/Work/WorkShop/qmcpack_workshop_2021/qmc_workshop_2021/week4_molecules/Be2/00_dft/runs/Be2/cc-pvqz/HF/SCF/scf.py ****

#! /usr/bin/env python3

import numpy as np
from numpy import array

### generated pyscfimport text ###
from pyscf import df, scf, dft
### end generated pyscfimport text ###





### generated system text ###
from pyscf import gto as gto_loc
mol = gto_loc.Mole()
mol.verbose  = 5
mol.atom     = '''
               Be   0.00000000   0.00000000   0.00000000
               Be   2.45360300   0.00000000   0.00000000
               '''
mol.basis    = 'cc-pvqz'
mol.unit     = 'A'
mol.charge   = 0
mol.spin     = 0
mol.symmetry = True
mol.build()
### end generated system text ###




### generated calculation text ###
mf = scf.ROHF(mol).density_fit()
mf.max_cycle=200
mf.level_shift=0.0
mf.tol         = '1e-10'
e_scf = mf.kernel()
### end generated calculation text ###



### generated conversion text ###
from PyscfToQmcpack import savetoqmcpack
savetoqmcpack(mol,mf,'scf')
### end generated conversion text ###

#INFO: ******************** input file end ********************


System: uname_result(system='Linux', node='abenali', release='5.11.0-38-generic', version='#42~20.04.1-Ubuntu SMP Tue Sep 28 20:41:07 UTC 2021', machine='x86_64', processor='x86_64')  Threads 1
Python 3.7.11 (default, Sep  9 2021, 02:06:38) 
[GCC 9.3.0]
numpy 1.20.3  scipy 1.6.2
Date: Wed Oct 20 12:23:26 2021
PySCF version 2.0.0a
PySCF path  /home/abenali/Work/src/pyscf
GIT HEAD (branch master) 3e8ba375fd4229f000289589fd02193633380853

[CONFIG] conf_file None
[INPUT] verbose = 5
[INPUT] max_memory = 4000 
[INPUT] num. atoms = 2
[INPUT] num. electrons = 8
[INPUT] charge = 0
[INPUT] spin (= nelec alpha-beta = 2S) = 0
[INPUT] symmetry True subgroup None
[INPUT] Mole.unit = A
[INPUT]  1 Be     0.000000000000   0.000000000000   0.000000000000 AA    0.000000000000   0.000000000000   0.000000000000 Bohr
[INPUT]  2 Be     2.453603000000   0.000000000000   0.000000000000 AA    4.636637688411   0.000000000000   0.000000000000 Bohr
[INPUT] ---------------- BASIS SET ---------------- 
[INPUT] l, kappa, [nprim/nctr], expnt,             c_1 c_2 ...
[INPUT] Be
[INPUT] 0    0    [9    /2   ]  14630             9.2e-05 -1.7e-05
                                2191              0.000713 -0.00013
                                498.2             0.003735 -0.000679
                                140.9             0.015468 -0.002857
                                45.86             0.052874 -0.009813
                                16.47             0.145694 -0.028609
                                6.319             0.302681 -0.06376
                                2.535             0.404936 -0.117231
                                1.035             0.222387 -0.121202
[INPUT] 0    0    [1    /1   ]  0.2528               1
[INPUT] 0    0    [1    /1   ]  0.1052               1
[INPUT] 0    0    [1    /1   ]  0.04261              1
[INPUT] 1    0    [3    /1   ]  14.03             0.004099
                                3.168             0.025626
                                0.9024            0.103768
[INPUT] 1    0    [1    /1   ]  0.3036               1
[INPUT] 1    0    [1    /1   ]  0.113                1
[INPUT] 1    0    [1    /1   ]  0.04286              1
[INPUT] 2    0    [1    /1   ]  1.072                1
[INPUT] 2    0    [1    /1   ]  0.441                1
[INPUT] 2    0    [1    /1   ]  0.1811               1
[INPUT] 3    0    [1    /1   ]  0.481                1
[INPUT] 3    0    [1    /1   ]  0.255                1
[INPUT] 4    0    [1    /1   ]  0.415                1

nuclear repulsion = 3.45077641929848
point group symmetry = Dooh
num. orbitals of irrep A1g = 15
num. orbitals of irrep E1gx = 10
num. orbitals of irrep E1gy = 10
num. orbitals of irrep A1u = 15
num. orbitals of irrep E1uy = 10
num. orbitals of irrep E1ux = 10
num. orbitals of irrep E2gx = 6
num. orbitals of irrep E2gy = 6
num. orbitals of irrep E3gx = 3
num. orbitals of irrep E3gy = 3
num. orbitals of irrep E2uy = 6
num. orbitals of irrep E2ux = 6
num. orbitals of irrep E3uy = 3
num. orbitals of irrep E3ux = 3
num. orbitals of irrep E4gx = 1
num. orbitals of irrep E4gy = 1
num. orbitals of irrep E4uy = 1
num. orbitals of irrep E4ux = 1
number of shells = 28
number of NR pGTOs = 136
number of NR cGTOs = 110
basis = cc-pvqz
ecp = {}
CPU time:         0.48


******** <class 'pyscf.df.df_jk.density_fit.<locals>.DFHF'> ********
method = DFHF-SymAdaptedROHF-ROHF-RHF
initial guess = minao
damping factor = 0
level_shift factor = 0.0
DIIS = <class 'pyscf.scf.diis.CDIIS'>
diis_start_cycle = 1
diis_space = 8
SCF conv_tol = 1e-09
SCF conv_tol_grad = None
SCF max_cycles = 200
direct_scf = True
direct_scf_tol = 1e-13
chkfile to save SCF result = /home/abenali/Work/WorkShop/qmcpack_workshop_2021/qmc_workshop_2021/week4_molecules/Be2/00_dft/runs/Be2/cc-pvqz/HF/SCF/tmpradg1il7
max_memory 4000 MB (current use 112 MB)
num. doubly occ = 4  num. singly occ = 0
Freeze 0 electrons in irreps []
    8 free electrons in irreps A1g E1gx E1gy A1u E1uy E1ux E2gx E2gy E3gx E3gy E2uy E2ux E3uy E3ux E4gx E4gy E4uy E4ux
Set gradient conv threshold to 3.16228e-05
******** <class 'pyscf.df.df.DF'> ********
auxbasis = None
max_memory = 4000
_cderi_to_save = /home/abenali/Work/WorkShop/qmcpack_workshop_2021/qmc_workshop_2021/week4_molecules/Be2/00_dft/runs/Be2/cc-pvqz/HF/SCF/tmpy0j77kib
Even tempered Gaussians are generated as DF auxbasis for  Be
  ETB auxbasis for Be  [[0, [698.12224, 1]], [0, [349.06112, 1]], [0, [174.53056, 1]], [0, [87.26528, 1]], [0, [43.63264, 1]], [0, [21.81632, 1]], [0, [10.90816, 1]], [0, [5.45408, 1]], [0, [2.72704, 1]], [0, [1.36352, 1]], [0, [0.68176, 1]], [0, [0.34088, 1]], [0, [0.17044, 1]], [0, [0.08522, 1]], [1, [87.5209055988248, 1]], [1, [43.7604527994124, 1]], [1, [21.8802263997062, 1]], [1, [10.9401131998531, 1]], [1, [5.47005659992655, 1]], [1, [2.735028299963275, 1]], [1, [1.3675141499816375, 1]], [1, [0.6837570749908187, 1]], [1, [0.34187853749540936, 1]], [1, [0.17093926874770468, 1]], [1, [0.08546963437385234, 1]], [2, [21.94432, 1]], [2, [10.97216, 1]], [2, [5.48608, 1]], [2, [2.74304, 1]], [2, [1.37152, 1]], [2, [0.68576, 1]], [2, [0.34288, 1]], [2, [0.17144, 1]], [2, [0.08572, 1]]]
num shells = 68, num cGTOs = 184
size of aux basis 184
int3c2e [1/1], AO [0:28], nrow = 6105
    CPU time for cholesky_eri      0.10 sec, wall time      0.11 sec
    CPU time for df vj and vk      0.30 sec, wall time      0.33 sec
E1 = -45.1574022290556  Ecoul = 12.451502298670773
init E= -29.2551235110863
cond(S) = 8315.302398035234
    CPU time for initialize scf      0.33 sec, wall time      0.36 sec
HOMO (A1u) = -0.18995077336074  LUMO (E1ux) = 0.0220007076366196
double occ irrep_nelec = [2, 0, 0, 2, 0, 0, 0, 0, 0, 0, 0, 0, 0, 0, 0, 0, 0, 0]
single occ irrep_nelec = [0, 0, 0, 0, 0, 0, 0, 0, 0, 0, 0, 0, 0, 0, 0, 0, 0, 0]
  Roothaan mo_energy =
[-4.70466468 -0.44281499  0.03568186  0.14092373  0.17830325  0.57190016
  0.71664651  0.7708867   1.25647435  1.76049762  2.3007156   2.49745986
  3.16549151  4.37348519  7.85518741  0.09093365  0.2352512   0.66826576
  0.75012103  1.41928114  1.72091059  2.41395176  2.77350606  3.12002378
  4.44508495  0.09093365  0.2352512   0.66826576  0.75012103  1.41928114
  1.72091059  2.41395176  2.77350606  3.12002378  4.44508495 -4.70461237
 -0.18995077  0.10700602  0.21246065  0.31277858  0.59181821  0.7717974
  0.97685196  1.27227069  1.8380219   2.41679232  2.87103668  3.25173638
  4.77044874  7.50155155  0.02200071  0.18578514  0.4623987   0.69931907
  1.0320286   1.57012718  2.15185222  2.46019203  2.82301788  4.29534255
  0.02200071  0.18578514  0.4623987   0.69931907  1.0320286   1.57012718
  2.15185222  2.46019203  2.82301788  4.29534255  0.44180542  0.91381765
  1.54278806  2.03500085  2.57572353  4.25634586  0.44180542  0.91381765
  1.54278806  2.03500085  2.57572353  4.25634586  1.01864001  2.29678291
  2.60248827  1.01864001  2.29678291  2.60248827  0.53995526  1.17538261
  1.59914992  2.55187425  2.75903792  4.30054497  0.53995526  1.17538261
  1.59914992  2.55187425  2.75903792  4.30054497  0.92629965  2.0482923
  2.55206056  0.92629965  2.0482923   2.55206056  2.13564143  2.13564143
  2.17712577  2.17712577]
    CPU time for df vj and vk      0.17 sec, wall time      0.19 sec
E1 = -44.92471898629687  Ecoul = 12.344255293435966
cycle= 1 E= -29.1296872735624  delta_E= 0.125  |g|= 0.0577  |ddm|= 0.538
    CPU time for cycle= 1      0.19 sec, wall time      0.21 sec
HOMO (A1u) = -0.250464955131032  LUMO (E1uy) = 0.0136158954243658
double occ irrep_nelec = [2, 0, 0, 2, 0, 0, 0, 0, 0, 0, 0, 0, 0, 0, 0, 0, 0, 0]
single occ irrep_nelec = [0, 0, 0, 0, 0, 0, 0, 0, 0, 0, 0, 0, 0, 0, 0, 0, 0, 0]
  Roothaan mo_energy =
[-4.73488781 -0.39927311  0.01659563  0.13273963  0.17210588  0.55898324
  0.71097824  0.75293762  1.23631786  1.74342113  2.27621403  2.47532191
  3.14926345  4.35019542  7.82673437  0.08310547  0.22489599  0.66023379
  0.73560402  1.40630628  1.70677985  2.39014226  2.74876081  3.10713768
  4.42051838  0.08310547  0.22489599  0.66023379  0.73560402  1.40630628
  1.70677985  2.39014226  2.74876081  3.10713768  4.42051838 -4.73486259
 -0.25046496  0.10982127  0.20873175  0.30296437  0.58245426  0.76034769
  0.97323828  1.25720495  1.824476    2.40077949  2.84925499  3.2296694
  4.74566026  7.47256264  0.0136159   0.17549953  0.45006906  0.68141372
  1.01559543  1.55297564  2.12710261  2.43468043  2.80742453  4.27122326
  0.0136159   0.17549953  0.45006906  0.68141372  1.01559543  1.55297564
  2.12710261  2.43468043  2.80742453  4.27122326  0.42617735  0.89785188
  1.52191206  2.01441353  2.55605682  4.23016852  0.42617735  0.89785188
  1.52191206  2.01441353  2.55605682  4.23016852  1.00445409  2.27584378
  2.58167748  1.00445409  2.27584378  2.58167748  0.52856292  1.16289262
  1.58003477  2.52403181  2.74736534  4.27460038  0.52856292  1.16289262
  1.58003477  2.52403181  2.74736534  4.27460038  0.90904012  2.02960573
  2.52822976  0.90904012  2.02960573  2.52822976  2.1152474   2.1152474
  2.15706372  2.15706372]
    CPU time for df vj and vk      0.16 sec, wall time      0.17 sec
E1 = -44.97743505089645  Ecoul = 12.393343280510166
cycle= 2 E= -29.1333153510878  delta_E= -0.00363  |g|= 0.0227  |ddm|= 0.0924
    CPU time for cycle= 2      0.19 sec, wall time      0.20 sec
HOMO (A1u) = -0.243444822927435  LUMO (A1g) = 0.0174570928713884
double occ irrep_nelec = [2, 0, 0, 2, 0, 0, 0, 0, 0, 0, 0, 0, 0, 0, 0, 0, 0, 0]
single occ irrep_nelec = [0, 0, 0, 0, 0, 0, 0, 0, 0, 0, 0, 0, 0, 0, 0, 0, 0, 0]
  Roothaan mo_energy =
[-4.72608408 -0.39341458  0.01745709  0.13551255  0.17325439  0.56418908
  0.7109539   0.76036244  1.24654864  1.7526506   2.29067718  2.48261999
  3.15558806  4.35833456  7.8362821   0.0843161   0.22844871  0.66293819
  0.73924955  1.41115063  1.71060403  2.39719473  2.76217562  3.10944068
  4.43009007  0.0843161   0.22844871  0.66293819  0.73924955  1.41115063
  1.71060403  2.39719473  2.76217562  3.10944068  4.43009007 -4.72605596
 -0.24344482  0.10950141  0.20928181  0.30814263  0.58553464  0.76512779
  0.97294313  1.26330994  1.82886766  2.4075569   2.85989707  3.23930823
  4.75595263  7.48290061  0.0190478   0.1802515   0.45383565  0.68749654
  1.02258447  1.56064559  2.14176711  2.44224401  2.81176078  4.27970605
  0.0190478   0.1802515   0.45383565  0.68749654  1.02258447  1.56064559
  2.14176711  2.44224401  2.81176078  4.27970605  0.43256625  0.90330785
  1.52855013  2.02527528  2.56150381  4.2372944   0.43256625  0.90330785
  1.52855013  2.02527528  2.56150381  4.2372944   1.00725346  2.2834348
  2.58508389  1.00725346  2.2834348   2.58508389  0.53121306  1.16625887
  1.58499724  2.53856137  2.74716344  4.28155239  0.53121306  1.16625887
  1.58499724  2.53856137  2.74716344  4.28155239  0.91397148  2.03609177
  2.53398181  0.91397148  2.03609177  2.53398181  2.11984332  2.11984332
  2.16133805  2.16133805]
    CPU time for df vj and vk      0.15 sec, wall time      0.15 sec
E1 = -44.97261777526755  Ecoul = 12.387868113192374
cycle= 3 E= -29.1339732427767  delta_E= -0.000658  |g|= 0.00688  |ddm|= 0.0526
    CPU time for cycle= 3      0.18 sec, wall time      0.18 sec
HOMO (A1u) = -0.242918351755372  LUMO (A1g) = 0.014586248095678
double occ irrep_nelec = [2, 0, 0, 2, 0, 0, 0, 0, 0, 0, 0, 0, 0, 0, 0, 0, 0, 0]
single occ irrep_nelec = [0, 0, 0, 0, 0, 0, 0, 0, 0, 0, 0, 0, 0, 0, 0, 0, 0, 0]
  Roothaan mo_energy =
[-4.73086697 -0.39531867  0.01458625  0.13493822  0.17246682  0.56293437
  0.70966222  0.75889601  1.24499028  1.75135015  2.28892109  2.4797467
  3.15355881  4.35519567  7.83236245  0.08349862  0.22750533  0.66160553
  0.73746438  1.40974552  1.7086442   2.39390913  2.76016977  3.10723037
  4.42707082  0.08349862  0.22750533  0.66160553  0.73746438  1.40974552
  1.7086442   2.39390913  2.76016977  3.10723037  4.42707082 -4.73083691
 -0.24291835  0.10980204  0.20878413  0.30733554  0.5841095   0.76384453
  0.9719297   1.26165966  1.82685933  2.40579963  2.85771345  3.23676794
  4.75302724  7.47899542  0.0179536   0.17929385  0.45238141  0.68546458
  1.02141213  1.55893092  2.14032327  2.43876724  2.80951042  4.27654739
  0.0179536   0.17929385  0.45238141  0.68546458  1.02141213  1.55893092
  2.14032327  2.43876724  2.80951042  4.27654739  0.43120123  0.90202749
  1.52606301  2.0239143   2.55886832  4.23355733  0.43120123  0.90202749
  1.52606301  2.0239143   2.55886832  4.23355733  1.00548356  2.28138167
  2.58182279  1.00548356  2.28138167  2.58182279  0.5298067   1.16482404
  1.5824489   2.5366849   2.74464812  4.27782347  0.5298067   1.16482404
  1.5824489   2.5366849   2.74464812  4.27782347  0.91233799  2.03417493
  2.53078057  0.91233799  2.03417493  2.53078057  2.11725318  2.11725318
  2.15870864  2.15870864]
    CPU time for df vj and vk      0.18 sec, wall time      0.19 sec
E1 = -44.9678755317342  Ecoul = 12.383041123079185
cycle= 4 E= -29.1340579893565  delta_E= -8.47e-05  |g|= 0.000726  |ddm|= 0.0249
    CPU time for cycle= 4      0.21 sec, wall time      0.21 sec
HOMO (A1u) = -0.242916909057866  LUMO (A1g) = 0.0141999613567653
double occ irrep_nelec = [2, 0, 0, 2, 0, 0, 0, 0, 0, 0, 0, 0, 0, 0, 0, 0, 0, 0]
single occ irrep_nelec = [0, 0, 0, 0, 0, 0, 0, 0, 0, 0, 0, 0, 0, 0, 0, 0, 0, 0]
  Roothaan mo_energy =
[-4.7314316  -0.39555086  0.01419996  0.13479405  0.1723852   0.56274718
  0.70945323  0.75864253  1.24470924  1.75109916  2.28859285  2.47933982
  3.15324548  4.35475154  7.83187544  0.08338202  0.22734549  0.66141063
  0.73717769  1.40951077  1.70834329  2.39346927  2.75980843  3.10691494
  4.42663238  0.08338202  0.22734549  0.66141063  0.73717769  1.40951077
  1.70834329  2.39346927  2.75980843  3.10691494  4.42663238 -4.73140146
 -0.24291691  0.10984795  0.20867924  0.30716278  0.58391962  0.76360075
  0.97179756  1.2614042   1.82656179  2.4055232   2.85735881  3.23638477
  4.75258982  7.47850406  0.01774513  0.17910882  0.45214945  0.68513877
  1.02119195  1.55863594  2.14000277  2.43829562  2.80919154  4.27609979
  0.01774513  0.17910882  0.45214945  0.68513877  1.02119195  1.55863594
  2.14000277  2.43829562  2.80919154  4.27609979  0.43093598  0.90178659
  1.52566859  2.02362326  2.55848135  4.23304803  0.43093598  0.90178659
  1.52566859  2.02362326  2.55848135  4.23304803  1.00517142  2.28102544
  2.58136058  1.00517142  2.28102544  2.58136058  0.52957419  1.16457886
  1.58205941  2.53630749  2.74431862  4.27731524  0.52957419  1.16457886
  1.58205941  2.53630749  2.74431862  4.27731524  0.91202721  2.03384359
  2.53030756  0.91202721  2.03384359  2.53030756  2.11683491  2.11683491
  2.15828794  2.15828794]
    CPU time for df vj and vk      0.16 sec, wall time      0.16 sec
E1 = -44.967128278650655  Ecoul = 12.382293113285503
cycle= 5 E= -29.1340587460667  delta_E= -7.57e-07  |g|= 5.59e-05  |ddm|= 0.00745
    CPU time for cycle= 5      0.19 sec, wall time      0.19 sec
HOMO (A1u) = -0.242921189055218  LUMO (A1g) = 0.014218289288638
double occ irrep_nelec = [2, 0, 0, 2, 0, 0, 0, 0, 0, 0, 0, 0, 0, 0, 0, 0, 0, 0]
single occ irrep_nelec = [0, 0, 0, 0, 0, 0, 0, 0, 0, 0, 0, 0, 0, 0, 0, 0, 0, 0]
  Roothaan mo_energy =
[-4.73140703 -0.39556248  0.01421829  0.13479439  0.17239556  0.56275702
  0.70946428  0.75865577  1.2447242   1.75111291  2.28860991  2.47936046
  3.15326544  4.35477366  7.83189611  0.0833879   0.22735233  0.66142136
  0.73718833  1.40952187  1.708359    2.3934878   2.75982548  3.10693347
  4.42665497  0.0833879   0.22735233  0.66142136  0.73718833  1.40952187
  1.708359    2.3934878   2.75982548  3.10693347  4.42665497 -4.73137694
 -0.24292119  0.10985269  0.2086794   0.30718237  0.58393413  0.76360933
  0.97180914  1.26141558  1.82658127  2.40553976  2.85737609  3.23640595
  4.75261174  7.47852458  0.01775054  0.17911269  0.45215991  0.68515041
  1.02120297  1.55865219  2.14001737  2.43831463  2.8092127   4.2761223
  0.01775054  0.17911269  0.45215991  0.68515041  1.02120297  1.55865219
  2.14001737  2.43831463  2.8092127   4.2761223   0.43094325  0.90179656
  1.52568323  2.02363695  2.55850126  4.23306993  0.43094325  0.90179656
  1.52568323  2.02363695  2.55850126  4.23306993  1.00517697  2.28103883
  2.58137829  1.00517697  2.28103883  2.58137829  0.52958112  1.16458778
  1.58207417  2.53632126  2.74433891  4.27733727  0.52958112  1.16458778
  1.58207417  2.53632126  2.74433891  4.27733727  0.91203357  2.03385748
  2.53032462  0.91203357  2.03385748  2.53032462  2.11684675  2.11684675
  2.15829974  2.15829974]
    CPU time for df vj and vk      0.14 sec, wall time      0.14 sec
E1 = -44.96716612598816  Ecoul = 12.382330957580784
cycle= 6 E= -29.1340587491089  delta_E= -3.04e-09  |g|= 7.01e-06  |ddm|= 0.00122
    CPU time for cycle= 6      0.16 sec, wall time      0.16 sec
HOMO (A1u) = -0.242918133119433  LUMO (A1g) = 0.0142167517425215
double occ irrep_nelec = [2, 0, 0, 2, 0, 0, 0, 0, 0, 0, 0, 0, 0, 0, 0, 0, 0, 0]
single occ irrep_nelec = [0, 0, 0, 0, 0, 0, 0, 0, 0, 0, 0, 0, 0, 0, 0, 0, 0, 0]
  Roothaan mo_energy =
[-4.73140217 -0.39555802  0.01421675  0.13479356  0.17239573  0.56275789
  0.70946595  0.75865675  1.24472608  1.75111498  2.28861269  2.47936317
  3.15326845  4.35477696  7.8319002   0.08338872  0.22735309  0.66142289
  0.73718892  1.4095229   1.7083608   2.39349038  2.75982766  3.10693583
  4.42665832  0.08338872  0.22735309  0.66142289  0.73718892  1.4095229
  1.7083608   2.39349038  2.75982766  3.10693583  4.42665832 -4.73137208
 -0.24291813  0.10985336  0.20867897  0.30718286  0.58393554  0.76361004
  0.97181109  1.26141671  1.82658396  2.40554218  2.85737844  3.23640959
  4.75261508  7.47852877  0.01775115  0.17911273  0.45216088  0.68515131
  1.02120406  1.55865435  2.14001913  2.43831706  2.80921542  4.27612554
  0.01775115  0.17911273  0.45216088  0.68515131  1.02120406  1.55865435
  2.14001913  2.43831706  2.80921542  4.27612554  0.43094318  0.90179689
  1.52568429  2.02363826  2.55850314  4.23307236  0.43094318  0.90179689
  1.52568429  2.02363826  2.55850314  4.23307236  1.00517625  2.28103946
  2.5813792   1.00517625  2.28103946  2.5813792   0.52958134  1.16458809
  1.58207525  2.53632221  2.74434116  4.2773397   0.52958134  1.16458809
  1.58207525  2.53632221  2.74434116  4.2773397   0.91203273  2.03385833
  2.53032532  0.91203273  2.03385833  2.53032532  2.11684655  2.11684655
  2.15829955  2.15829955]
    CPU time for df vj and vk      0.13 sec, wall time      0.13 sec
E1 = -44.967164091771345  Ecoul = 12.38232892330363
cycle= 7 E= -29.1340587491692  delta_E= -6.03e-11  |g|= 7.67e-07  |ddm|= 0.000207
    CPU time for cycle= 7      0.15 sec, wall time      0.15 sec
HOMO (A1u) = -0.242918553522041  LUMO (A1g) = 0.0142168552526419
double occ irrep_nelec = [2, 0, 0, 2, 0, 0, 0, 0, 0, 0, 0, 0, 0, 0, 0, 0, 0, 0]
single occ irrep_nelec = [0, 0, 0, 0, 0, 0, 0, 0, 0, 0, 0, 0, 0, 0, 0, 0, 0, 0]
  Roothaan mo_energy =
[-4.73140295 -0.39555875  0.01421686  0.13479347  0.17239578  0.56275775
  0.70946587  0.75865654  1.24472579  1.75111471  2.28861225  2.47936276
  3.15326814  4.35477648  7.83189953  0.08338865  0.22735293  0.66142278
  0.73718874  1.40952278  1.70836059  2.39348992  2.75982726  3.10693563
  4.42665782  0.08338865  0.22735293  0.66142278  0.73718874  1.40952278
  1.70836059  2.39348992  2.75982726  3.10693563  4.42665782 -4.73137287
 -0.24291855  0.10985344  0.20867894  0.3071829   0.58393545  0.7636099
  0.97181103  1.26141651  1.82658372  2.40554193  2.85737807  3.23640909
  4.75261457  7.47852808  0.01775098  0.17911255  0.45216075  0.68515106
  1.02120391  1.55865407  2.14001877  2.43831658  2.80921518  4.27612505
  0.01775098  0.17911255  0.45216075  0.68515106  1.02120391  1.55865407
  2.14001877  2.43831658  2.80921518  4.27612505  0.430943    0.90179678
  1.52568401  2.023638    2.55850287  4.2330719   0.430943    0.90179678
  1.52568401  2.023638    2.55850287  4.2330719   1.00517618  2.28103925
  2.58137897  1.00517618  2.28103925  2.58137897  0.52958123  1.16458802
  1.582075    2.53632184  2.74434101  4.27733925  0.52958123  1.16458802
  1.582075    2.53632184  2.74434101  4.27733925  0.91203262  2.03385814
  2.53032504  0.91203262  2.03385814  2.53032504  2.1168464   2.1168464
  2.1582994   2.1582994 ]
    CPU time for df vj and vk      0.16 sec, wall time      0.16 sec
E1 = -44.967164248835026  Ecoul = 12.38232908036671
Extra cycle  E= -29.1340587491698  delta_E= -6.04e-13  |g|= 2.29e-07  |ddm|= 1.17e-05
    CPU time for scf_cycle      1.78 sec, wall time      1.84 sec
    CPU time for SCF      1.78 sec, wall time      1.84 sec
converged SCF energy = -29.1340587491698
Using Python 3.x
Wavefunction successfully saved to QMCPACK HDF5 Format
Use: "convert4qmc -pyscf  scf.h5" to generate QMCPACK input files
