
     Program PWSCF v.6.3MaX starts on 27Sep2021 at 13: 8:16 

     This program is part of the open-source Quantum ESPRESSO suite
     for quantum simulation of materials; please cite
         "P. Giannozzi et al., J. Phys.:Condens. Matter 21 395502 (2009);
         "P. Giannozzi et al., J. Phys.:Condens. Matter 29 465901 (2017);
          URL http://www.quantum-espresso.org", 
     in publications or presentations arising from this work. More details at
     http://www.quantum-espresso.org/quote

     Parallel version (MPI), running on    12 processors

     MPI processes distributed on     1 nodes
     R & G space division:  proc/nbgrp/npool/nimage =      12
     Reading input from scf.in

     Current dimensions of program PWSCF are:
     Max number of different atomic species (ntypx) = 10
     Max number of k-points (npk) =  40000
     Max angular momentum in pseudopotentials (lmaxx) =  3

     IMPORTANT: XC functional enforced from input :
     Exchange-correlation      = PBE ( 1  4  3  4 0 0)
     Any further DFT definition will be discarded
     Please, verify this is what you really want


     Subspace diagonalization in iterative solution of the eigenvalue problem:
     a serial algorithm will be used


     Parallelization info
     --------------------
     sticks:   dense  smooth     PW     G-vecs:    dense   smooth      PW
     Min          85      85     25                 1794     1794     281
     Max          86      86     26                 1797     1797     283
     Sum        1027    1027    301                21547    21547    3383



     bravais-lattice index     =            0
     lattice parameter (alat)  =       4.2933  a.u.
     unit-cell volume          =      55.9589 (a.u.)^3
     number of atoms/cell      =            2
     number of atomic types    =            1
     number of electrons       =         8.00
     number of Kohn-Sham states=            4
     kinetic-energy cutoff     =     200.0000  Ry
     charge density cutoff     =     800.0000  Ry
     convergence threshold     =      1.0E-08
     mixing beta               =       0.7000
     number of iterations used =            8  plain     mixing
     Exchange-correlation      = PBE ( 1  4  3  4 0 0)

     celldm(1)=   4.293333  celldm(2)=   0.000000  celldm(3)=   0.000000
     celldm(4)=   0.000000  celldm(5)=   0.000000  celldm(6)=   0.000000

     crystal axes: (cart. coord. in units of alat)
               a(1) = (   0.707107   0.707107  -0.000000 )  
               a(2) = (   0.000000   0.707107   0.707107 )  
               a(3) = (   0.707107   0.000000   0.707107 )  

     reciprocal axes: (cart. coord. in units 2 pi/alat)
               b(1) = (  0.707107  0.707107 -0.707107 )  
               b(2) = ( -0.707107  0.707107  0.707107 )  
               b(3) = (  0.707107 -0.707107  0.707107 )  


     PseudoPot. # 1 for C  read from file:
     ./C.ccECP.upf
     MD5 check sum: c19abb4557c739f7d8de6f72ec65f7b0
     Pseudo is Norm-conserving, Zval =  4.0
     Generated by new atomic code, or converted to UPF format
     Using radial grid of 1122 points,  1 beta functions with: 
                l(1) =   0

     atomic species   valence    mass     pseudopotential
        C              4.00    12.01100     C ( 1.00)

     48 Sym. Ops., with inversion, found (24 have fractional translation)



   Cartesian axes

     site n.     atom                  positions (alat units)
         1           C   tau(   1) = (   0.0000000   0.0000000   0.0000000  )
         2           C   tau(   2) = (   0.3535534   0.3535534   0.3535534  )

     number of k points=     8
                       cart. coord. in units 2pi/alat
        k(    1) = (   0.0000000   0.0000000   0.0000000), wk =   0.0312500
        k(    2) = (   0.1767767  -0.1767767   0.1767767), wk =   0.2500000
        k(    3) = (  -0.3535534   0.3535534  -0.3535534), wk =   0.1250000
        k(    4) = (   0.0000000   0.0000000   0.3535534), wk =   0.1875000
        k(    5) = (  -0.5303301   0.5303301  -0.1767767), wk =   0.7500000
        k(    6) = (  -0.3535534   0.3535534   0.0000000), wk =   0.3750000
        k(    7) = (   0.0000000   0.0000000  -0.7071068), wk =   0.0937500
        k(    8) = (   0.3535534   0.0000000  -0.7071068), wk =   0.1875000

     Dense  grid:    21547 G-vectors     FFT dimensions: (  40,  40,  40)

     Estimated max dynamical RAM per process >       1.45 MB

     Estimated total dynamical RAM >      17.39 MB

     Initial potential from superposition of free atoms

     starting charge    6.00000, renormalised to    8.00000
     Starting wfcs are    8 randomized atomic wfcs

     total cpu time spent up to now is        0.1 secs

     Self-consistent Calculation

     iteration #  1     ecut=   200.00 Ry     beta= 0.70
     Davidson diagonalization with overlap
     ethr =  1.00E-02,  avg # of iterations =  2.0

     Threshold (ethr) on eigenvalues was too large:
     Diagonalizing with lowered threshold

     Davidson diagonalization with overlap
     ethr =  6.46E-04,  avg # of iterations =  1.0

     total cpu time spent up to now is        0.2 secs

     total energy              =     -22.60201409 Ry
     Harris-Foulkes estimate   =     -22.61884787 Ry
     estimated scf accuracy    <       0.05028401 Ry

     iteration #  2     ecut=   200.00 Ry     beta= 0.70
     Davidson diagonalization with overlap
     ethr =  6.29E-04,  avg # of iterations =  1.0

     total cpu time spent up to now is        0.2 secs

     total energy              =     -22.60466323 Ry
     Harris-Foulkes estimate   =     -22.60464644 Ry
     estimated scf accuracy    <       0.00161105 Ry

     iteration #  3     ecut=   200.00 Ry     beta= 0.70
     Davidson diagonalization with overlap
     ethr =  2.01E-05,  avg # of iterations =  2.0

     total cpu time spent up to now is        0.3 secs

     total energy              =     -22.60491373 Ry
     Harris-Foulkes estimate   =     -22.60490558 Ry
     estimated scf accuracy    <       0.00003189 Ry

     iteration #  4     ecut=   200.00 Ry     beta= 0.70
     Davidson diagonalization with overlap
     ethr =  3.99E-07,  avg # of iterations =  2.5

     total cpu time spent up to now is        0.3 secs

     total energy              =     -22.60492175 Ry
     Harris-Foulkes estimate   =     -22.60492301 Ry
     estimated scf accuracy    <       0.00000270 Ry

     iteration #  5     ecut=   200.00 Ry     beta= 0.70
     Davidson diagonalization with overlap
     ethr =  3.38E-08,  avg # of iterations =  2.0

     total cpu time spent up to now is        0.4 secs

     total energy              =     -22.60492240 Ry
     Harris-Foulkes estimate   =     -22.60492239 Ry
     estimated scf accuracy    <       0.00000001 Ry

     iteration #  6     ecut=   200.00 Ry     beta= 0.70
     Davidson diagonalization with overlap
     ethr =  1.71E-10,  avg # of iterations =  3.5

     total cpu time spent up to now is        0.4 secs

     total energy              =     -22.60492241 Ry
     Harris-Foulkes estimate   =     -22.60492242 Ry
     estimated scf accuracy    <       0.00000001 Ry

     iteration #  7     ecut=   200.00 Ry     beta= 0.70
     Davidson diagonalization with overlap
     ethr =  1.71E-10,  avg # of iterations =  1.9

     total cpu time spent up to now is        0.5 secs

     End of self-consistent calculation

          k = 0.0000 0.0000 0.0000 (  2685 PWs)   bands (ev):

    -6.5824  19.8468  19.8468  19.8468

          k = 0.1768-0.1768 0.1768 (  2683 PWs)   bands (ev):

    -4.4441  11.4968  17.4739  17.4739

          k =-0.3536 0.3536-0.3536 (  2692 PWs)   bands (ev):

     1.3114   2.3862  16.1174  16.1174

          k = 0.0000 0.0000 0.3536 (  2682 PWs)   bands (ev):

    -3.7356  14.2024  14.2024  14.8404

          k =-0.5303 0.5303-0.1768 (  2680 PWs)   bands (ev):

     1.0722   6.3598  11.2620  13.2461

          k =-0.3536 0.3536 0.0000 (  2676 PWs)   bands (ev):

    -0.9604   9.2414   9.8100  15.7843

          k = 0.0000 0.0000-0.7071 (  2698 PWs)   bands (ev):

     4.3962   4.3962  11.3553  11.3553

          k = 0.3536 0.0000-0.7071 (  2656 PWs)   bands (ev):

     5.8454   5.8454   8.3685   8.3685

     highest occupied level (ev):    19.8468

!    total energy              =     -22.60492242 Ry
     Harris-Foulkes estimate   =     -22.60492242 Ry
     estimated scf accuracy    <          7.9E-12 Ry

     The total energy is the sum of the following terms:

     one-electron contribution =      11.81773357 Ry
     hartree contribution      =       1.62740932 Ry
     xc contribution           =      -7.65969361 Ry
     ewald contribution        =     -28.39037168 Ry

     convergence has been achieved in   7 iterations

     Writing output data file pwscf.save/

     init_run     :      0.05s CPU      0.07s WALL (       1 calls)
     electrons    :      0.33s CPU      0.39s WALL (       1 calls)

     Called by init_run:
     wfcinit      :      0.02s CPU      0.03s WALL (       1 calls)
     potinit      :      0.01s CPU      0.01s WALL (       1 calls)
     hinit0       :      0.02s CPU      0.02s WALL (       1 calls)

     Called by electrons:
     c_bands      :      0.23s CPU      0.27s WALL (       8 calls)
     sum_band     :      0.04s CPU      0.05s WALL (       8 calls)
     v_of_rho     :      0.04s CPU      0.06s WALL (       8 calls)
     mix_rho      :      0.00s CPU      0.01s WALL (       8 calls)

     Called by c_bands:
     init_us_2    :      0.00s CPU      0.00s WALL (     136 calls)
     cegterg      :      0.23s CPU      0.26s WALL (      64 calls)

     Called by sum_band:

     Called by *egterg:
     h_psi        :      0.20s CPU      0.23s WALL (     199 calls)
     g_psi        :      0.00s CPU      0.00s WALL (     127 calls)
     cdiaghg      :      0.02s CPU      0.02s WALL (     183 calls)

     Called by h_psi:
     h_psi:pot    :      0.19s CPU      0.23s WALL (     199 calls)
     h_psi:calbec :      0.01s CPU      0.01s WALL (     199 calls)
     vloc_psi     :      0.18s CPU      0.22s WALL (     199 calls)
     add_vuspsi   :      0.00s CPU      0.00s WALL (     199 calls)

     General routines
     calbec       :      0.01s CPU      0.01s WALL (     199 calls)
     fft          :      0.02s CPU      0.03s WALL (      81 calls)
     ffts         :      0.00s CPU      0.00s WALL (       8 calls)
     fftw         :      0.20s CPU      0.23s WALL (    1774 calls)

     Parallel routines
     fft_scatt_xy :      0.02s CPU      0.03s WALL (    1863 calls)
     fft_scatt_yz :      0.09s CPU      0.11s WALL (    1863 calls)

     PWSCF        :     0.43s CPU         0.52s WALL


   This run was terminated on:  13: 8:17  27Sep2021            

=------------------------------------------------------------------------------=
   JOB DONE.
=------------------------------------------------------------------------------=
