 CRYSTAL
 PRIMVEC
     1.60650000    1.60650000   -0.00000000
     0.00000000    1.60650000    1.60650000
     1.60650000    0.00000000    1.60650000
 PRIMCOORD
   2 1
     6   0.00000000    0.00000000    0.00000000
     6   0.80325000    0.80325000    0.80325000
