
     Program PWSCF v.6.3MaX starts on 27Sep2021 at 13: 8:19 

     This program is part of the open-source Quantum ESPRESSO suite
     for quantum simulation of materials; please cite
         "P. Giannozzi et al., J. Phys.:Condens. Matter 21 395502 (2009);
         "P. Giannozzi et al., J. Phys.:Condens. Matter 29 465901 (2017);
          URL http://www.quantum-espresso.org", 
     in publications or presentations arising from this work. More details at
     http://www.quantum-espresso.org/quote

     Parallel version (MPI), running on    12 processors

     MPI processes distributed on     1 nodes
     R & G space division:  proc/nbgrp/npool/nimage =      12
     Reading input from scf.in

     Current dimensions of program PWSCF are:
     Max number of different atomic species (ntypx) = 10
     Max number of k-points (npk) =  40000
     Max angular momentum in pseudopotentials (lmaxx) =  3

     IMPORTANT: XC functional enforced from input :
     Exchange-correlation      = PBE ( 1  4  3  4 0 0)
     Any further DFT definition will be discarded
     Please, verify this is what you really want


     Subspace diagonalization in iterative solution of the eigenvalue problem:
     a serial algorithm will be used


     Parallelization info
     --------------------
     sticks:   dense  smooth     PW     G-vecs:    dense   smooth      PW
     Min          94      94     26                 2092     2092     319
     Max          95      95     27                 2095     2095     324
     Sum        1135    1135    313                25125    25125    3839



     bravais-lattice index     =            0
     lattice parameter (alat)  =       4.5319  a.u.
     unit-cell volume          =      65.8131 (a.u.)^3
     number of atoms/cell      =            2
     number of atomic types    =            1
     number of electrons       =         8.00
     number of Kohn-Sham states=            4
     kinetic-energy cutoff     =     200.0000  Ry
     charge density cutoff     =     800.0000  Ry
     convergence threshold     =      1.0E-08
     mixing beta               =       0.7000
     number of iterations used =            8  plain     mixing
     Exchange-correlation      = PBE ( 1  4  3  4 0 0)

     celldm(1)=   4.531852  celldm(2)=   0.000000  celldm(3)=   0.000000
     celldm(4)=   0.000000  celldm(5)=   0.000000  celldm(6)=   0.000000

     crystal axes: (cart. coord. in units of alat)
               a(1) = (   0.707107   0.707107   0.000000 )  
               a(2) = (  -0.000000   0.707107   0.707107 )  
               a(3) = (   0.707107  -0.000000   0.707107 )  

     reciprocal axes: (cart. coord. in units 2 pi/alat)
               b(1) = (  0.707107  0.707107 -0.707107 )  
               b(2) = ( -0.707107  0.707107  0.707107 )  
               b(3) = (  0.707107 -0.707107  0.707107 )  


     PseudoPot. # 1 for C  read from file:
     ./C.ccECP.upf
     MD5 check sum: c19abb4557c739f7d8de6f72ec65f7b0
     Pseudo is Norm-conserving, Zval =  4.0
     Generated by new atomic code, or converted to UPF format
     Using radial grid of 1122 points,  1 beta functions with: 
                l(1) =   0

     atomic species   valence    mass     pseudopotential
        C              4.00    12.01100     C ( 1.00)

     24 Sym. Ops. (no inversion) found
          (note: 24 additional sym.ops. were found but ignored
           their fractional translations are incommensurate with FFT grid)


   Cartesian axes

     site n.     atom                  positions (alat units)
         1           C   tau(   1) = (   0.0000000   0.0000000   0.0000000  )
         2           C   tau(   2) = (   0.3535534   0.3535534   0.3535534  )

     number of k points=     8
                       cart. coord. in units 2pi/alat
        k(    1) = (   0.0000000   0.0000000   0.0000000), wk =   0.0312500
        k(    2) = (   0.1767767  -0.1767767   0.1767767), wk =   0.2500000
        k(    3) = (  -0.3535534   0.3535534  -0.3535534), wk =   0.1250000
        k(    4) = (   0.0000000   0.0000000   0.3535534), wk =   0.1875000
        k(    5) = (  -0.5303301   0.5303301  -0.1767767), wk =   0.7500000
        k(    6) = (  -0.3535534   0.3535534   0.0000000), wk =   0.3750000
        k(    7) = (   0.0000000   0.0000000  -0.7071068), wk =   0.0937500
        k(    8) = (   0.3535534   0.0000000  -0.7071068), wk =   0.1875000

     Dense  grid:    25125 G-vectors     FFT dimensions: (  45,  45,  45)

     Estimated max dynamical RAM per process >       1.73 MB

     Estimated total dynamical RAM >      20.80 MB

     Initial potential from superposition of free atoms

     starting charge    6.00000, renormalised to    8.00000
     Starting wfcs are    8 randomized atomic wfcs

     total cpu time spent up to now is        0.1 secs

     Self-consistent Calculation

     iteration #  1     ecut=   200.00 Ry     beta= 0.70
     Davidson diagonalization with overlap
     ethr =  1.00E-02,  avg # of iterations =  2.0

     Threshold (ethr) on eigenvalues was too large:
     Diagonalizing with lowered threshold

     Davidson diagonalization with overlap
     ethr =  3.05E-04,  avg # of iterations =  1.0

     total cpu time spent up to now is        0.2 secs

     total energy              =     -22.70872223 Ry
     Harris-Foulkes estimate   =     -22.70931291 Ry
     estimated scf accuracy    <       0.02363411 Ry

     iteration #  2     ecut=   200.00 Ry     beta= 0.70
     Davidson diagonalization with overlap
     ethr =  2.95E-04,  avg # of iterations =  1.0

     total cpu time spent up to now is        0.3 secs

     total energy              =     -22.71004261 Ry
     Harris-Foulkes estimate   =     -22.70961384 Ry
     estimated scf accuracy    <       0.00133297 Ry

     iteration #  3     ecut=   200.00 Ry     beta= 0.70
     Davidson diagonalization with overlap
     ethr =  1.67E-05,  avg # of iterations =  1.0

     total cpu time spent up to now is        0.3 secs

     total energy              =     -22.71013222 Ry
     Harris-Foulkes estimate   =     -22.71012408 Ry
     estimated scf accuracy    <       0.00002215 Ry

     iteration #  4     ecut=   200.00 Ry     beta= 0.70
     Davidson diagonalization with overlap
     ethr =  2.77E-07,  avg # of iterations =  3.0

     total cpu time spent up to now is        0.4 secs

     total energy              =     -22.71014264 Ry
     Harris-Foulkes estimate   =     -22.71014286 Ry
     estimated scf accuracy    <       0.00000047 Ry

     iteration #  5     ecut=   200.00 Ry     beta= 0.70
     Davidson diagonalization with overlap
     ethr =  5.84E-09,  avg # of iterations =  2.9

     total cpu time spent up to now is        0.5 secs

     End of self-consistent calculation

          k = 0.0000 0.0000 0.0000 (  3143 PWs)   bands (ev):

    -7.5091  16.3356  16.3356  16.3356

          k = 0.1768-0.1768 0.1768 (  3134 PWs)   bands (ev):

    -5.5843   8.9279  14.3006  14.3006

          k =-0.3536 0.3536-0.3536 (  3142 PWs)   bands (ev):

    -0.7615   1.0849  13.1044  13.1044

          k = 0.0000 0.0000 0.3536 (  3122 PWs)   bands (ev):

    -4.9473  11.5136  11.5136  11.5924

          k =-0.5303 0.5303-0.1768 (  3140 PWs)   bands (ev):

    -0.6870   4.2924   8.7190  10.6646

          k =-0.3536 0.3536 0.0000 (  3134 PWs)   bands (ev):

    -2.4721   6.7521   7.5829  12.8388

          k = 0.0000 0.0000-0.7071 (  3138 PWs)   bands (ev):

     2.3062   2.3062   9.0266   9.0266

          k = 0.3536 0.0000-0.7071 (  3156 PWs)   bands (ev):

     3.3738   3.3738   6.5703   6.5704

     highest occupied level (ev):    16.3356

!    total energy              =     -22.71014282 Ry
     Harris-Foulkes estimate   =     -22.71014282 Ry
     estimated scf accuracy    <          8.7E-09 Ry

     The total energy is the sum of the following terms:

     one-electron contribution =       9.77687548 Ry
     hartree contribution      =       1.77298686 Ry
     xc contribution           =      -7.36386360 Ry
     ewald contribution        =     -26.89614155 Ry

     convergence has been achieved in   5 iterations

     Writing output data file pwscf.save/

     init_run     :      0.07s CPU      0.09s WALL (       1 calls)
     electrons    :      0.31s CPU      0.37s WALL (       1 calls)

     Called by init_run:
     wfcinit      :      0.03s CPU      0.03s WALL (       1 calls)
     potinit      :      0.02s CPU      0.02s WALL (       1 calls)
     hinit0       :      0.02s CPU      0.02s WALL (       1 calls)

     Called by electrons:
     c_bands      :      0.21s CPU      0.26s WALL (       6 calls)
     sum_band     :      0.05s CPU      0.05s WALL (       6 calls)
     v_of_rho     :      0.05s CPU      0.06s WALL (       6 calls)
     mix_rho      :      0.00s CPU      0.00s WALL (       6 calls)

     Called by c_bands:
     init_us_2    :      0.00s CPU      0.00s WALL (     104 calls)
     cegterg      :      0.20s CPU      0.26s WALL (      48 calls)

     Called by sum_band:

     Called by *egterg:
     h_psi        :      0.20s CPU      0.24s WALL (     143 calls)
     g_psi        :      0.00s CPU      0.00s WALL (      87 calls)
     cdiaghg      :      0.01s CPU      0.01s WALL (     127 calls)

     Called by h_psi:
     h_psi:pot    :      0.20s CPU      0.24s WALL (     143 calls)
     h_psi:calbec :      0.01s CPU      0.01s WALL (     143 calls)
     vloc_psi     :      0.19s CPU      0.23s WALL (     143 calls)
     add_vuspsi   :      0.00s CPU      0.00s WALL (     143 calls)

     General routines
     calbec       :      0.01s CPU      0.01s WALL (     143 calls)
     fft          :      0.03s CPU      0.03s WALL (      61 calls)
     ffts         :      0.00s CPU      0.00s WALL (       6 calls)
     fftw         :      0.21s CPU      0.25s WALL (    1290 calls)

     Parallel routines
     fft_scatt_xy :      0.02s CPU      0.03s WALL (    1357 calls)
     fft_scatt_yz :      0.12s CPU      0.14s WALL (    1357 calls)

     PWSCF        :     0.44s CPU         0.53s WALL


   This run was terminated on:  13: 8:20  27Sep2021            

=------------------------------------------------------------------------------=
   JOB DONE.
=------------------------------------------------------------------------------=
