 CRYSTAL
 PRIMVEC
     1.69575000    1.69575000    0.00000000
    -0.00000000    1.69575000    1.69575000
     1.69575000   -0.00000000    1.69575000
 PRIMCOORD
   2 1
     6   0.00000000    0.00000000    0.00000000
     6   0.84787500    0.84787500    0.84787500
