#INFO: **** input file is /home/abenali/Work/WorkShop/qmcpack_workshop_2021/qmc_workshop_2021/week4_molecules/Be2/00_dft/runs/Be2/cc-pvqz/PBE0/SCF/scf.py ****

#! /usr/bin/env python3

import numpy as np
from numpy import array

### generated pyscfimport text ###
from pyscf import df, scf, dft
### end generated pyscfimport text ###





### generated system text ###
from pyscf import gto as gto_loc
mol = gto_loc.Mole()
mol.verbose  = 5
mol.atom     = '''
               Be   0.00000000   0.00000000   0.00000000
               Be   2.45360300   0.00000000   0.00000000
               '''
mol.basis    = 'cc-pvqz'
mol.unit     = 'A'
mol.charge   = 0
mol.spin     = 0
mol.symmetry = True
mol.build()
### end generated system text ###




### generated calculation text ###
mf = scf.ROKS(mol).density_fit()
mf.max_cycle=200
mf.level_shift=0.0
mf.xc          = 'PBE0'
mf.tol         = '1e-10'
e_scf = mf.kernel()
### end generated calculation text ###



### generated conversion text ###
from PyscfToQmcpack import savetoqmcpack
savetoqmcpack(mol,mf,'scf')
### end generated conversion text ###

#INFO: ******************** input file end ********************


System: uname_result(system='Linux', node='abenali', release='5.11.0-38-generic', version='#42~20.04.1-Ubuntu SMP Tue Sep 28 20:41:07 UTC 2021', machine='x86_64', processor='x86_64')  Threads 1
Python 3.7.11 (default, Sep  9 2021, 02:06:38) 
[GCC 9.3.0]
numpy 1.20.3  scipy 1.6.2
Date: Wed Oct 20 12:23:30 2021
PySCF version 2.0.0a
PySCF path  /home/abenali/Work/src/pyscf
GIT HEAD (branch master) 3e8ba375fd4229f000289589fd02193633380853

[CONFIG] conf_file None
[INPUT] verbose = 5
[INPUT] max_memory = 4000 
[INPUT] num. atoms = 2
[INPUT] num. electrons = 8
[INPUT] charge = 0
[INPUT] spin (= nelec alpha-beta = 2S) = 0
[INPUT] symmetry True subgroup None
[INPUT] Mole.unit = A
[INPUT]  1 Be     0.000000000000   0.000000000000   0.000000000000 AA    0.000000000000   0.000000000000   0.000000000000 Bohr
[INPUT]  2 Be     2.453603000000   0.000000000000   0.000000000000 AA    4.636637688411   0.000000000000   0.000000000000 Bohr
[INPUT] ---------------- BASIS SET ---------------- 
[INPUT] l, kappa, [nprim/nctr], expnt,             c_1 c_2 ...
[INPUT] Be
[INPUT] 0    0    [9    /2   ]  14630             9.2e-05 -1.7e-05
                                2191              0.000713 -0.00013
                                498.2             0.003735 -0.000679
                                140.9             0.015468 -0.002857
                                45.86             0.052874 -0.009813
                                16.47             0.145694 -0.028609
                                6.319             0.302681 -0.06376
                                2.535             0.404936 -0.117231
                                1.035             0.222387 -0.121202
[INPUT] 0    0    [1    /1   ]  0.2528               1
[INPUT] 0    0    [1    /1   ]  0.1052               1
[INPUT] 0    0    [1    /1   ]  0.04261              1
[INPUT] 1    0    [3    /1   ]  14.03             0.004099
                                3.168             0.025626
                                0.9024            0.103768
[INPUT] 1    0    [1    /1   ]  0.3036               1
[INPUT] 1    0    [1    /1   ]  0.113                1
[INPUT] 1    0    [1    /1   ]  0.04286              1
[INPUT] 2    0    [1    /1   ]  1.072                1
[INPUT] 2    0    [1    /1   ]  0.441                1
[INPUT] 2    0    [1    /1   ]  0.1811               1
[INPUT] 3    0    [1    /1   ]  0.481                1
[INPUT] 3    0    [1    /1   ]  0.255                1
[INPUT] 4    0    [1    /1   ]  0.415                1

nuclear repulsion = 3.45077641929848
point group symmetry = Dooh
num. orbitals of irrep A1g = 15
num. orbitals of irrep E1gx = 10
num. orbitals of irrep E1gy = 10
num. orbitals of irrep A1u = 15
num. orbitals of irrep E1uy = 10
num. orbitals of irrep E1ux = 10
num. orbitals of irrep E2gx = 6
num. orbitals of irrep E2gy = 6
num. orbitals of irrep E3gx = 3
num. orbitals of irrep E3gy = 3
num. orbitals of irrep E2uy = 6
num. orbitals of irrep E2ux = 6
num. orbitals of irrep E3uy = 3
num. orbitals of irrep E3ux = 3
num. orbitals of irrep E4gx = 1
num. orbitals of irrep E4gy = 1
num. orbitals of irrep E4uy = 1
num. orbitals of irrep E4ux = 1
number of shells = 28
number of NR pGTOs = 136
number of NR cGTOs = 110
basis = cc-pvqz
ecp = {}
CPU time:         0.64


******** <class 'pyscf.df.df_jk.density_fit.<locals>.DFHF'> ********
method = DFHF-SymAdaptedROKS-SymAdaptedROHF-ROHF-RHF
initial guess = minao
damping factor = 0
level_shift factor = 0.0
DIIS = <class 'pyscf.scf.diis.CDIIS'>
diis_start_cycle = 1
diis_space = 8
SCF conv_tol = 1e-09
SCF conv_tol_grad = None
SCF max_cycles = 200
direct_scf = True
direct_scf_tol = 1e-13
chkfile to save SCF result = /home/abenali/Work/WorkShop/qmcpack_workshop_2021/qmc_workshop_2021/week4_molecules/Be2/00_dft/runs/Be2/cc-pvqz/PBE0/SCF/tmppn93_6bi
max_memory 4000 MB (current use 112 MB)
num. doubly occ = 4  num. singly occ = 0
XC library pyscf.dft.libxc version 5.1.5
    S. Lehtola, C. Steigemann, M. J. Oliveira, and M. A. Marques, SoftwareX 7, 1 (2018)
XC functionals = PBE0
    C. Adamo and V. Barone, J. Chem. Phys. 110, 6158 (1999)
    M. Ernzerhof and G. E. Scuseria, J. Chem. Phys. 110, 5029 (1999)
radial grids: 
    Treutler-Ahlrichs [JCP 102, 346 (1995); DOI:10.1063/1.469408] (M4) radial grids
    
becke partition: Becke, JCP 88, 2547 (1988); DOI:10.1063/1.454033
pruning grids: <function nwchem_prune at 0x7f20078a0d40>
grids dens level: 3
symmetrized grids: True
atomic radii adjust function: <function treutler_atomic_radii_adjust at 0x7f20078a9200>
small_rho_cutoff = 1e-07
Freeze 0 electrons in irreps []
    8 free electrons in irreps A1g E1gx E1gy A1u E1uy E1ux E2gx E2gy E3gx E3gy E2uy E2ux E3uy E3ux E4gx E4gy E4uy E4ux
Set gradient conv threshold to 3.16228e-05
atom Be rad-grids = 75, ang-grids = [ 50  50  50  50  50  50  50  50  50  50  50  50  50  50  50  50  50  50
  50  50  50  50  50  50  50  50  86  86  86  86  86  86  86  86  86  86
  86 266 266 266 266 266 266 266 266 302 302 302 302 302 302 302 302 302
 302 302 302 302 302 302 302 302 302 302 302 302 266 266 266 266 266 266
 266 266 266]
tot grids = 26220
Drop grids 790
    CPU time for setting up grids      0.10 sec, wall time      0.10 sec
nelec by numeric integration = [3.99999276 3.99999276]
    CPU time for vxc      0.54 sec, wall time      0.54 sec
******** <class 'pyscf.df.df.DF'> ********
auxbasis = None
max_memory = 4000
_cderi_to_save = /home/abenali/Work/WorkShop/qmcpack_workshop_2021/qmc_workshop_2021/week4_molecules/Be2/00_dft/runs/Be2/cc-pvqz/PBE0/SCF/tmpnp2nwd6d
Even tempered Gaussians are generated as DF auxbasis for  Be
  ETB auxbasis for Be  [[0, [698.12224, 1]], [0, [349.06112, 1]], [0, [174.53056, 1]], [0, [87.26528, 1]], [0, [43.63264, 1]], [0, [21.81632, 1]], [0, [10.90816, 1]], [0, [5.45408, 1]], [0, [2.72704, 1]], [0, [1.36352, 1]], [0, [0.68176, 1]], [0, [0.34088, 1]], [0, [0.17044, 1]], [0, [0.08522, 1]], [1, [87.5209055988248, 1]], [1, [43.7604527994124, 1]], [1, [21.8802263997062, 1]], [1, [10.9401131998531, 1]], [1, [5.47005659992655, 1]], [1, [2.735028299963275, 1]], [1, [1.3675141499816375, 1]], [1, [0.6837570749908187, 1]], [1, [0.34187853749540936, 1]], [1, [0.17093926874770468, 1]], [1, [0.08546963437385234, 1]], [2, [21.94432, 1]], [2, [10.97216, 1]], [2, [5.48608, 1]], [2, [2.74304, 1]], [2, [1.37152, 1]], [2, [0.68576, 1]], [2, [0.34288, 1]], [2, [0.17144, 1]], [2, [0.08572, 1]]]
num shells = 68, num cGTOs = 184
size of aux basis 184
int3c2e [1/1], AO [0:28], nrow = 6105
    CPU time for cholesky_eri      0.08 sec, wall time      0.08 sec
    CPU time for df vj and vk      0.22 sec, wall time      0.22 sec
E1 = -45.1574022290556  Ecoul = 17.910163957448855  Exc = -5.546353755795448
init E= -29.3428156081037
cond(S) = 8315.302398035234
    CPU time for initialize scf      0.89 sec, wall time      0.90 sec
HOMO (A1u) = -0.177080761175838  LUMO (E1uy) = -0.0751109030560689
double occ irrep_nelec = [2, 0, 0, 2, 0, 0, 0, 0, 0, 0, 0, 0, 0, 0, 0, 0, 0, 0]
single occ irrep_nelec = [0, 0, 0, 0, 0, 0, 0, 0, 0, 0, 0, 0, 0, 0, 0, 0, 0, 0]
  Roothaan mo_energy =
[-4.09010079e+00 -3.15335998e-01 -7.11180046e-02  7.42992197e-02
  1.03327908e-01  4.35665665e-01  5.72856541e-01  6.10389231e-01
  1.06038680e+00  1.56602566e+00  2.04890010e+00  2.23015853e+00
  2.92516810e+00  4.10700156e+00  7.29616682e+00 -9.47386214e-04
  1.35758945e-01  5.17617364e-01  5.98536526e-01  1.24233914e+00
  1.53422235e+00  2.12617396e+00  2.53993472e+00  2.89856741e+00
  4.17876136e+00 -9.47386214e-04  1.35758945e-01  5.17617364e-01
  5.98536526e-01  1.24233914e+00  1.53422235e+00  2.12617396e+00
  2.53993472e+00  2.89856741e+00  4.17876136e+00 -4.09000256e+00
 -1.77080761e-01  5.89756540e-02  1.39299764e-01  1.92334739e-01
  4.52700728e-01  6.27797031e-01  8.32969271e-01  1.10079082e+00
  1.63519604e+00  2.19385496e+00  2.64029808e+00  2.94781154e+00
  4.49816703e+00  6.94386616e+00 -7.51109031e-02  1.02911947e-01
  3.19591380e-01  5.38679109e-01  8.58951346e-01  1.37293848e+00
  1.92587056e+00  2.16815596e+00  2.59531459e+00  4.03157090e+00
 -7.51109031e-02  1.02911947e-01  3.19591380e-01  5.38679109e-01
  8.58951346e-01  1.37293848e+00  1.92587056e+00  2.16815596e+00
  2.59531459e+00  4.03157090e+00  3.06300390e-01  7.48960580e-01
  1.34402555e+00  1.82627269e+00  2.34993165e+00  3.99285790e+00
  3.06300801e-01  7.48960768e-01  1.34403038e+00  1.82627260e+00
  2.34993321e+00  3.99285308e+00  8.59709622e-01  2.08839197e+00
  2.37931636e+00  8.59709622e-01  2.08839197e+00  2.37931636e+00
  4.01735100e-01  1.00910572e+00  1.40275522e+00  2.32804203e+00
  2.54501684e+00  4.03707676e+00  4.01734729e-01  1.00910538e+00
  1.40275021e+00  2.32804069e+00  2.54501802e+00  4.03708035e+00
  7.68130262e-01  1.84314922e+00  2.32690068e+00  7.68130262e-01
  1.84314922e+00  2.32690068e+00  1.93229961e+00  1.93232014e+00
  1.97335176e+00  1.97333077e+00]
nelec by numeric integration = [4.0000001 4.0000001]
    CPU time for vxc      0.33 sec, wall time      0.33 sec
    CPU time for df vj and vk      0.13 sec, wall time      0.13 sec
E1 = -45.00720985418409  Ecoul = 17.76746925575269  Exc = -5.492258795789576
cycle= 1 E= -29.2812229749225  delta_E= 0.0616  |g|= 0.034  |ddm|= 0.523
    CPU time for cycle= 1      0.47 sec, wall time      0.47 sec
HOMO (A1u) = -0.193874079492034  LUMO (E1uy) = -0.081427017053085
double occ irrep_nelec = [2, 0, 0, 2, 0, 0, 0, 0, 0, 0, 0, 0, 0, 0, 0, 0, 0, 0]
single occ irrep_nelec = [0, 0, 0, 0, 0, 0, 0, 0, 0, 0, 0, 0, 0, 0, 0, 0, 0, 0]
  Roothaan mo_energy =
[-4.11377582 -0.31221456 -0.0803184   0.07042566  0.09949396  0.42994101
  0.56763592  0.60253245  1.05154969  1.55987991  2.03926554  2.22013371
  2.91850008  4.09517175  7.27604111 -0.00778814  0.13066331  0.5114803
  0.59179179  1.23523861  1.52861677  2.11228331  2.5307123   2.89303458
  4.16672218 -0.00778814  0.13066331  0.5114803   0.59179179  1.23523861
  1.52861677  2.11228331  2.5307123   2.89303458  4.16672218 -4.11373768
 -0.19387408  0.05633917  0.13511068  0.1865594   0.44705028  0.6211069
  0.83010299  1.09308896  1.6294561   2.18720021  2.63265846  2.9370933
  4.48610775  6.92334657 -0.08142702  0.0979253   0.31252553  0.53029472
  0.85078766  1.36696015  1.91592316  2.15367817  2.58972587  4.01960561
 -0.08142702  0.0979253   0.31252553  0.53029472  0.85078766  1.36696015
  1.91592316  2.15367817  2.58972587  4.01960561  0.29875427  0.74081831
  1.33526906  1.81765598  2.34239679  3.97891057  0.29875467  0.74081859
  1.33527383  1.81765612  2.34239918  3.9789083   0.85175877  2.07945955
  2.37010047  0.85175877  2.07945955  2.37010047  0.39477782  1.0021698
  1.39449428  2.31720947  2.54016323  4.02313787  0.39477744  1.00216901
  1.39448912  2.31720759  2.54016249  4.02313882  0.7597696   1.83468871
  2.31681865  0.7597696   1.83468871  2.31681865  1.92269339  1.92271257
  1.96380063  1.96378099]
nelec by numeric integration = [4.0000001 4.0000001]
    CPU time for vxc      0.31 sec, wall time      0.31 sec
    CPU time for df vj and vk      0.12 sec, wall time      0.12 sec
E1 = -45.07336546691247  Ecoul = 17.839066403135394  Exc = -5.499017723818392
cycle= 2 E= -29.282540368297  delta_E= -0.00132  |g|= 0.0189  |ddm|= 0.0661
    CPU time for cycle= 2      0.45 sec, wall time      0.45 sec
HOMO (A1u) = -0.1913847571866  LUMO (A1g) = -0.0777635103559802
double occ irrep_nelec = [2, 0, 0, 2, 0, 0, 0, 0, 0, 0, 0, 0, 0, 0, 0, 0, 0, 0]
single occ irrep_nelec = [0, 0, 0, 0, 0, 0, 0, 0, 0, 0, 0, 0, 0, 0, 0, 0, 0, 0]
  Roothaan mo_energy =
[-4.10619108e+00 -3.04440026e-01 -7.77635104e-02  7.22320221e-02
  1.00630183e-01  4.33641574e-01  5.68374027e-01  6.08197723e-01
  1.05834031e+00  1.56560141e+00  2.04750674e+00  2.22583973e+00
  2.92331812e+00  4.10119395e+00  7.28348717e+00 -5.31988755e-03
  1.32426961e-01  5.13788669e-01  5.95005663e-01  1.23917077e+00
  1.53193881e+00  2.11790568e+00  2.53872897e+00  2.89583093e+00
  4.17333053e+00 -5.31988755e-03  1.32426961e-01  5.13788669e-01
  5.95005663e-01  1.23917077e+00  1.53193881e+00  2.11790568e+00
  2.53872897e+00  2.89583093e+00  4.17333053e+00 -4.10615110e+00
 -1.91384757e-01  5.69625428e-02  1.36297075e-01  1.90548968e-01
  4.49152437e-01  6.24522264e-01  8.31246816e-01  1.09733027e+00
  1.63325606e+00  2.19223476e+00  2.63926087e+00  2.94372784e+00
  4.49311484e+00  6.93123424e+00 -7.65964736e-02  1.00468265e-01
  3.15828129e-01  5.34554296e-01  8.55572554e-01  1.37205704e+00
  1.92396488e+00  2.15974157e+00  2.59370177e+00  4.02572336e+00
 -7.65964736e-02  1.00468265e-01  3.15828129e-01  5.34554296e-01
  8.55572554e-01  1.37205704e+00  1.92396488e+00  2.15974157e+00
  2.59370177e+00  4.02572336e+00  3.03310940e-01  7.44669111e-01
  1.34029021e+00  1.82402525e+00  2.34695918e+00  3.98470676e+00
  3.03311330e-01  7.44669392e-01  1.34029494e+00  1.82402538e+00
  2.34696164e+00  3.98470484e+00  8.54772567e-01  2.08478311e+00
  2.37398670e+00  8.54772567e-01  2.08478311e+00  2.37398670e+00
  3.97402170e-01  1.00534261e+00  1.39871839e+00  2.32551743e+00
  2.54215396e+00  4.02885140e+00  3.97401809e-01  1.00534179e+00
  1.39871326e+00  2.32551557e+00  2.54215303e+00  4.02885197e+00
  7.63760322e-01  1.83930737e+00  2.32181582e+00  7.63760322e-01
  1.83930737e+00  2.32181582e+00  1.92691071e+00  1.92692974e+00
  1.96788562e+00  1.96786614e+00]
nelec by numeric integration = [4.0000001 4.0000001]
    CPU time for vxc      0.28 sec, wall time      0.28 sec
    CPU time for df vj and vk      0.09 sec, wall time      0.09 sec
E1 = -45.041963416136056  Ecoul = 17.802680963996394  Exc = -5.494227816626862
cycle= 3 E= -29.282733849468  delta_E= -0.000193  |g|= 0.00233  |ddm|= 0.034
    CPU time for cycle= 3      0.39 sec, wall time      0.39 sec
HOMO (A1u) = -0.19192508483283  LUMO (A1g) = -0.0789234191521758
double occ irrep_nelec = [2, 0, 0, 2, 0, 0, 0, 0, 0, 0, 0, 0, 0, 0, 0, 0, 0, 0]
single occ irrep_nelec = [0, 0, 0, 0, 0, 0, 0, 0, 0, 0, 0, 0, 0, 0, 0, 0, 0, 0]
  Roothaan mo_energy =
[-4.10877763e+00 -3.05691776e-01 -7.89234192e-02  7.17245499e-02
  1.00144423e-01  4.32903276e-01  5.67513498e-01  6.07074699e-01
  1.05730985e+00  1.56471984e+00  2.04624390e+00  2.22447012e+00
  2.92227775e+00  4.09951960e+00  7.28129231e+00 -6.08415601e-03
  1.31864962e-01  5.12880579e-01  5.94128880e-01  1.23824257e+00
  1.53100884e+00  2.11618696e+00  2.53756807e+00  2.89491280e+00
  4.17162319e+00 -6.08415601e-03  1.31864962e-01  5.12880579e-01
  5.94128880e-01  1.23824257e+00  1.53100884e+00  2.11618696e+00
  2.53756807e+00  2.89491280e+00  4.17162319e+00 -4.10873772e+00
 -1.91925085e-01  5.66460171e-02  1.35722540e-01  1.89861404e-01
  4.48269879e-01  6.23670080e-01  8.30634342e-01  1.09630475e+00
  1.63231071e+00  2.19126682e+00  2.63815566e+00  2.94224340e+00
  4.49146498e+00  6.92901765e+00 -7.75327580e-02  9.98834535e-02
  3.14803514e-01  5.33453070e-01  8.54656046e-01  1.37104285e+00
  1.92283230e+00  2.15799613e+00  2.59269830e+00  4.02398495e+00
 -7.75327580e-02  9.98834535e-02  3.14803514e-01  5.33453070e-01
  8.54656046e-01  1.37104285e+00  1.92283230e+00  2.15799613e+00
  2.59269830e+00  4.02398495e+00  3.02396491e-01  7.43623857e-01
  1.33919572e+00  1.82303547e+00  2.34581326e+00  3.98286521e+00
  3.02396866e-01  7.43624120e-01  1.33920038e+00  1.82303562e+00
  2.34581570e+00  3.98286339e+00  8.53914228e-01  2.08372521e+00
  2.37282432e+00  8.53914228e-01  2.08372521e+00  2.37282432e+00
  3.96602289e-01  1.00443400e+00  1.39766921e+00  2.32434647e+00
  2.54120561e+00  4.02701842e+00  3.96601942e-01  1.00443321e+00
  1.39766418e+00  2.32434460e+00  2.54120477e+00  4.02701891e+00
  7.62847072e-01  1.83823286e+00  2.32061655e+00  7.62847072e-01
  1.83823286e+00  2.32061655e+00  1.92586605e+00  1.92588499e+00
  1.96684747e+00  1.96682808e+00]
nelec by numeric integration = [4.0000001 4.0000001]
    CPU time for vxc      0.18 sec, wall time      0.18 sec
    CPU time for df vj and vk      0.09 sec, wall time      0.09 sec
E1 = -45.043869837136924  Ecoul = 17.80463524499315  Exc = -5.494283750400875
cycle= 4 E= -29.2827419232462  delta_E= -8.07e-06  |g|= 0.000129  |ddm|= 0.00925
    CPU time for cycle= 4      0.29 sec, wall time      0.29 sec
HOMO (A1u) = -0.191898985944535  LUMO (A1g) = -0.0789253400853307
double occ irrep_nelec = [2, 0, 0, 2, 0, 0, 0, 0, 0, 0, 0, 0, 0, 0, 0, 0, 0, 0]
single occ irrep_nelec = [0, 0, 0, 0, 0, 0, 0, 0, 0, 0, 0, 0, 0, 0, 0, 0, 0, 0]
  Roothaan mo_energy =
[-4.10876250e+00 -3.05691092e-01 -7.89253401e-02  7.17203285e-02
  1.00146363e-01  4.32916922e-01  5.67537031e-01  6.07063453e-01
  1.05731865e+00  1.56474000e+00  2.04626082e+00  2.22447997e+00
  2.92230808e+00  4.09953818e+00  7.28130145e+00 -6.06892759e-03
  1.31870133e-01  5.12895068e-01  5.94137603e-01  1.23824846e+00
  1.53102300e+00  2.11619680e+00  2.53757273e+00  2.89493807e+00
  4.17163490e+00 -6.06892759e-03  1.31870133e-01  5.12895068e-01
  5.94137603e-01  1.23824846e+00  1.53102300e+00  2.11619680e+00
  2.53757273e+00  2.89493807e+00  4.17163490e+00 -4.10872258e+00
 -1.91898986e-01  5.66545691e-02  1.35734711e-01  1.89864035e-01
  4.48281776e-01  6.23687731e-01  8.30658757e-01  1.09631075e+00
  1.63233449e+00  2.19128812e+00  2.63816849e+00  2.94227034e+00
  4.49148095e+00  6.92902885e+00 -7.75361690e-02  9.98783864e-02
  3.14800834e-01  5.33454081e-01  8.54661186e-01  1.37105202e+00
  1.92283424e+00  2.15800111e+00  2.59271917e+00  4.02399556e+00
 -7.75361690e-02  9.98783864e-02  3.14800834e-01  5.33454081e-01
  8.54661186e-01  1.37105202e+00  1.92283424e+00  2.15800111e+00
  2.59271917e+00  4.02399556e+00  3.02391569e-01  7.43615556e-01
  1.33919422e+00  1.82303685e+00  2.34581616e+00  3.98286915e+00
  3.02391943e-01  7.43615819e-01  1.33919888e+00  1.82303701e+00
  2.34581861e+00  3.98286733e+00  8.53922910e-01  2.08371844e+00
  2.37282596e+00  8.53922910e-01  2.08371844e+00  2.37282596e+00
  3.96617185e-01  1.00443559e+00  1.39767342e+00  2.32433363e+00
  2.54122555e+00  4.02702299e+00  3.96616840e-01  1.00443480e+00
  1.39766839e+00  2.32433175e+00  2.54122470e+00  4.02702348e+00
  7.62845071e-01  1.83822849e+00  2.32061130e+00  7.62845071e-01
  1.83822849e+00  2.32061130e+00  1.92586572e+00  1.92588464e+00
  1.96684843e+00  1.96682906e+00]
nelec by numeric integration = [4.0000001 4.0000001]
    CPU time for vxc      0.19 sec, wall time      0.19 sec
    CPU time for df vj and vk      0.07 sec, wall time      0.07 sec
E1 = -45.04392875160035  Ecoul = 17.804693344998565  Exc = -5.4942829465683385
cycle= 5 E= -29.2827419338716  delta_E= -1.06e-08  |g|= 9.38e-06  |ddm|= 0.000701
    CPU time for cycle= 5      0.27 sec, wall time      0.27 sec
HOMO (A1u) = -0.191904007167339  LUMO (A1g) = -0.0789303780762819
double occ irrep_nelec = [2, 0, 0, 2, 0, 0, 0, 0, 0, 0, 0, 0, 0, 0, 0, 0, 0, 0]
single occ irrep_nelec = [0, 0, 0, 0, 0, 0, 0, 0, 0, 0, 0, 0, 0, 0, 0, 0, 0, 0]
  Roothaan mo_energy =
[-4.10877706e+00 -3.05695956e-01 -7.89303781e-02  7.17183379e-02
  1.00143183e-01  4.32912874e-01  5.67530678e-01  6.07058665e-01
  1.05731345e+00  1.56473498e+00  2.04625364e+00  2.22447228e+00
  2.92230111e+00  4.09952893e+00  7.28128952e+00 -6.07279636e-03
  1.31867132e-01  5.12890158e-01  5.94133280e-01  1.23824399e+00
  1.53101757e+00  2.11618788e+00  2.53756772e+00  2.89493182e+00
  4.17162585e+00 -6.07279636e-03  1.31867132e-01  5.12890158e-01
  5.94133280e-01  1.23824399e+00  1.53101757e+00  2.11618788e+00
  2.53756772e+00  2.89493182e+00  4.17162585e+00 -4.10873714e+00
 -1.91904007e-01  5.66508362e-02  1.35731429e-01  1.89860394e-01
  4.48275979e-01  6.23683861e-01  8.30653159e-01  1.09630595e+00
  1.63232782e+00  2.19128213e+00  2.63816254e+00  2.94226094e+00
  4.49147200e+00  6.92901679e+00 -7.75399427e-02  9.98762903e-02
  3.14796049e-01  5.33449274e-01  8.54657055e-01  1.37104636e+00
  1.92282938e+00  2.15799257e+00  2.59271255e+00  4.02398637e+00
 -7.75399427e-02  9.98762903e-02  3.14796049e-01  5.33449274e-01
  8.54657055e-01  1.37104636e+00  1.92282938e+00  2.15799257e+00
  2.59271255e+00  4.02398637e+00  3.02388743e-01  7.43611690e-01
  1.33918919e+00  1.82303281e+00  2.34581011e+00  3.98286034e+00
  3.02389117e-01  7.43611953e-01  1.33919384e+00  1.82303296e+00
  2.34581256e+00  3.98285852e+00  8.53920420e-01  2.08371430e+00
  2.37282046e+00  8.53920420e-01  2.08371430e+00  2.37282046e+00
  3.96614293e-01  1.00443172e+00  1.39766823e+00  2.32432996e+00
  2.54121888e+00  4.02701418e+00  3.96613948e-01  1.00443093e+00
  1.39766320e+00  2.32432809e+00  2.54121803e+00  4.02701467e+00
  7.62842611e-01  1.83822398e+00  2.32060627e+00  7.62842611e-01
  1.83822398e+00  2.32060627e+00  1.92586212e+00  1.92588104e+00
  1.96684482e+00  1.96682544e+00]
nelec by numeric integration = [4.0000001 4.0000001]
    CPU time for vxc      0.17 sec, wall time      0.17 sec
    CPU time for df vj and vk      0.07 sec, wall time      0.07 sec
E1 = -45.043930773033814  Ecoul = 17.80469659239342  Exc = -5.494284172577736
cycle= 6 E= -29.2827419339197  delta_E= -4.8e-11  |g|= 1.52e-06  |ddm|= 7.4e-05
    CPU time for cycle= 6      0.26 sec, wall time      0.26 sec
HOMO (A1u) = -0.191903039739366  LUMO (A1g) = -0.0789293150110686
double occ irrep_nelec = [2, 0, 0, 2, 0, 0, 0, 0, 0, 0, 0, 0, 0, 0, 0, 0, 0, 0]
single occ irrep_nelec = [0, 0, 0, 0, 0, 0, 0, 0, 0, 0, 0, 0, 0, 0, 0, 0, 0, 0]
  Roothaan mo_energy =
[-4.10877385e+00 -3.05694589e-01 -7.89293150e-02  7.17188289e-02
  1.00143619e-01  4.32913776e-01  5.67531706e-01  6.07059818e-01
  1.05731485e+00  1.56473625e+00  2.04625545e+00  2.22447394e+00
  2.92230258e+00  4.09953090e+00  7.28129223e+00 -6.07186043e-03
  1.31867734e-01  5.12891186e-01  5.94134282e-01  1.23824504e+00
  1.53101870e+00  2.11618982e+00  2.53756925e+00  2.89493299e+00
  4.17162786e+00 -6.07186043e-03  1.31867734e-01  5.12891186e-01
  5.94134282e-01  1.23824504e+00  1.53101870e+00  2.11618982e+00
  2.53756925e+00  2.89493299e+00  4.17162786e+00 -4.10873394e+00
 -1.91903040e-01  5.66511762e-02  1.35732061e-01  1.89861247e-01
  4.48276913e-01  6.23684970e-01  8.30653919e-01  1.09630710e+00
  1.63232909e+00  2.19128347e+00  2.63816399e+00  2.94226296e+00
  4.49147403e+00  6.92901957e+00 -7.75389021e-02  9.98768778e-02
  3.14797062e-01  5.33450473e-01  8.54658146e-01  1.37104764e+00
  1.92283089e+00  2.15799451e+00  2.59271383e+00  4.02398834e+00
 -7.75389021e-02  9.98768778e-02  3.14797062e-01  5.33450473e-01
  8.54658146e-01  1.37104764e+00  1.92283089e+00  2.15799451e+00
  2.59271383e+00  4.02398834e+00  3.02389719e-01  7.43612711e-01
  1.33919040e+00  1.82303406e+00  2.34581139e+00  3.98286228e+00
  3.02390093e-01  7.43612974e-01  1.33919506e+00  1.82303422e+00
  2.34581384e+00  3.98286046e+00  8.53921357e-01  2.08371547e+00
  2.37282164e+00  8.53921357e-01  2.08371547e+00  2.37282164e+00
  3.96615237e-01  1.00443267e+00  1.39766940e+00  2.32433138e+00
  2.54121996e+00  4.02701611e+00  3.96614891e-01  1.00443188e+00
  1.39766437e+00  2.32432951e+00  2.54121911e+00  4.02701660e+00
  7.62843563e-01  1.83822512e+00  2.32060750e+00  7.62843563e-01
  1.83822512e+00  2.32060750e+00  1.92586319e+00  1.92588211e+00
  1.96684588e+00  1.96682651e+00]
nelec by numeric integration = [4.0000001 4.0000001]
    CPU time for vxc      0.16 sec, wall time      0.16 sec
    CPU time for df vj and vk      0.08 sec, wall time      0.08 sec
E1 = -45.04392744343334  Ecoul = 17.804692583799078  Exc = -5.494283493584847
Extra cycle  E= -29.2827419339206  delta_E= -9.81e-13  |g|= 5.63e-07  |ddm|= 7.51e-06
    CPU time for scf_cycle      3.26 sec, wall time      3.28 sec
    CPU time for SCF      3.26 sec, wall time      3.28 sec
converged SCF energy = -29.2827419339206
Using Python 3.x
Wavefunction successfully saved to QMCPACK HDF5 Format
Use: "convert4qmc -pyscf  scf.h5" to generate QMCPACK input files
