 CRYSTAL
 PRIMVEC
     1.87425000    1.87425000   -0.00000000
     0.00000000    1.87425000    1.87425000
     1.87425000    0.00000000    1.87425000
 PRIMCOORD
   2 1
     6   0.00000000    0.00000000    0.00000000
     6   0.93712500    0.93712500    0.93712500
