
     Program PWSCF v.6.3MaX starts on 27Sep2021 at 13: 8:25 

     This program is part of the open-source Quantum ESPRESSO suite
     for quantum simulation of materials; please cite
         "P. Giannozzi et al., J. Phys.:Condens. Matter 21 395502 (2009);
         "P. Giannozzi et al., J. Phys.:Condens. Matter 29 465901 (2017);
          URL http://www.quantum-espresso.org", 
     in publications or presentations arising from this work. More details at
     http://www.quantum-espresso.org/quote

     Parallel version (MPI), running on    12 processors

     MPI processes distributed on     1 nodes
     R & G space division:  proc/nbgrp/npool/nimage =      12
     Reading input from scf.in

     Current dimensions of program PWSCF are:
     Max number of different atomic species (ntypx) = 10
     Max number of k-points (npk) =  40000
     Max angular momentum in pseudopotentials (lmaxx) =  3

     IMPORTANT: XC functional enforced from input :
     Exchange-correlation      = PBE ( 1  4  3  4 0 0)
     Any further DFT definition will be discarded
     Please, verify this is what you really want


     Subspace diagonalization in iterative solution of the eigenvalue problem:
     a serial algorithm will be used


     Parallelization info
     --------------------
     sticks:   dense  smooth     PW     G-vecs:    dense   smooth      PW
     Min         115     115     32                 2834     2834     430
     Max         117     117     34                 2836     2836     431
     Sum        1393    1393    397                34015    34015    5161



     bravais-lattice index     =            0
     lattice parameter (alat)  =       5.0089  a.u.
     unit-cell volume          =      88.8606 (a.u.)^3
     number of atoms/cell      =            2
     number of atomic types    =            1
     number of electrons       =         8.00
     number of Kohn-Sham states=            4
     kinetic-energy cutoff     =     200.0000  Ry
     charge density cutoff     =     800.0000  Ry
     convergence threshold     =      1.0E-08
     mixing beta               =       0.7000
     number of iterations used =            8  plain     mixing
     Exchange-correlation      = PBE ( 1  4  3  4 0 0)

     celldm(1)=   5.008889  celldm(2)=   0.000000  celldm(3)=   0.000000
     celldm(4)=   0.000000  celldm(5)=   0.000000  celldm(6)=   0.000000

     crystal axes: (cart. coord. in units of alat)
               a(1) = (   0.707107   0.707107  -0.000000 )  
               a(2) = (   0.000000   0.707107   0.707107 )  
               a(3) = (   0.707107   0.000000   0.707107 )  

     reciprocal axes: (cart. coord. in units 2 pi/alat)
               b(1) = (  0.707107  0.707107 -0.707107 )  
               b(2) = ( -0.707107  0.707107  0.707107 )  
               b(3) = (  0.707107 -0.707107  0.707107 )  


     PseudoPot. # 1 for C  read from file:
     ./C.ccECP.upf
     MD5 check sum: c19abb4557c739f7d8de6f72ec65f7b0
     Pseudo is Norm-conserving, Zval =  4.0
     Generated by new atomic code, or converted to UPF format
     Using radial grid of 1122 points,  1 beta functions with: 
                l(1) =   0

     atomic species   valence    mass     pseudopotential
        C              4.00    12.01100     C ( 1.00)

     24 Sym. Ops. (no inversion) found
          (note: 24 additional sym.ops. were found but ignored
           their fractional translations are incommensurate with FFT grid)


   Cartesian axes

     site n.     atom                  positions (alat units)
         1           C   tau(   1) = (   0.0000000   0.0000000   0.0000000  )
         2           C   tau(   2) = (   0.3535534   0.3535534   0.3535534  )

     number of k points=     8
                       cart. coord. in units 2pi/alat
        k(    1) = (   0.0000000   0.0000000   0.0000000), wk =   0.0312500
        k(    2) = (   0.1767767  -0.1767767   0.1767767), wk =   0.2500000
        k(    3) = (  -0.3535534   0.3535534  -0.3535534), wk =   0.1250000
        k(    4) = (   0.0000000   0.0000000   0.3535534), wk =   0.1875000
        k(    5) = (  -0.5303301   0.5303301  -0.1767767), wk =   0.7500000
        k(    6) = (  -0.3535534   0.3535534   0.0000000), wk =   0.3750000
        k(    7) = (   0.0000000   0.0000000  -0.7071068), wk =   0.0937500
        k(    8) = (   0.3535534   0.0000000  -0.7071068), wk =   0.1875000

     Dense  grid:    34015 G-vectors     FFT dimensions: (  45,  45,  45)

     Estimated max dynamical RAM per process >       2.14 MB

     Estimated total dynamical RAM >      25.69 MB

     Initial potential from superposition of free atoms

     starting charge    6.00000, renormalised to    8.00000
     Starting wfcs are    8 randomized atomic wfcs

     total cpu time spent up to now is        0.1 secs

     Self-consistent Calculation

     iteration #  1     ecut=   200.00 Ry     beta= 0.70
     Davidson diagonalization with overlap
     ethr =  1.00E-02,  avg # of iterations =  1.8

     Threshold (ethr) on eigenvalues was too large:
     Diagonalizing with lowered threshold

     Davidson diagonalization with overlap
     ethr =  2.68E-04,  avg # of iterations =  1.6

     total cpu time spent up to now is        0.2 secs

     total energy              =     -22.71593850 Ry
     Harris-Foulkes estimate   =     -22.71069102 Ry
     estimated scf accuracy    <       0.02163362 Ry

     iteration #  2     ecut=   200.00 Ry     beta= 0.70
     Davidson diagonalization with overlap
     ethr =  2.70E-04,  avg # of iterations =  1.0

     total cpu time spent up to now is        0.3 secs

     total energy              =     -22.71703536 Ry
     Harris-Foulkes estimate   =     -22.71637623 Ry
     estimated scf accuracy    <       0.00180197 Ry

     iteration #  3     ecut=   200.00 Ry     beta= 0.70
     Davidson diagonalization with overlap
     ethr =  2.25E-05,  avg # of iterations =  1.0

     total cpu time spent up to now is        0.4 secs

     total energy              =     -22.71715185 Ry
     Harris-Foulkes estimate   =     -22.71715022 Ry
     estimated scf accuracy    <       0.00001058 Ry

     iteration #  4     ecut=   200.00 Ry     beta= 0.70
     Davidson diagonalization with overlap
     ethr =  1.32E-07,  avg # of iterations =  3.6

     total cpu time spent up to now is        0.5 secs

     total energy              =     -22.71717273 Ry
     Harris-Foulkes estimate   =     -22.71717280 Ry
     estimated scf accuracy    <       0.00000071 Ry

     iteration #  5     ecut=   200.00 Ry     beta= 0.70
     Davidson diagonalization with overlap
     ethr =  8.85E-09,  avg # of iterations =  2.1

     total cpu time spent up to now is        0.5 secs

     total energy              =     -22.71717278 Ry
     Harris-Foulkes estimate   =     -22.71717291 Ry
     estimated scf accuracy    <       0.00000024 Ry

     iteration #  6     ecut=   200.00 Ry     beta= 0.70
     Davidson diagonalization with overlap
     ethr =  3.06E-09,  avg # of iterations =  1.9

     total cpu time spent up to now is        0.6 secs

     End of self-consistent calculation

          k = 0.0000 0.0000 0.0000 (  4279 PWs)   bands (ev):

    -8.8601  10.8985  10.8985  10.8985

          k = 0.1768-0.1768 0.1768 (  4260 PWs)   bands (ev):

    -7.3061   4.9202   9.3827   9.3827

          k =-0.3536 0.3536-0.3536 (  4236 PWs)   bands (ev):

    -3.8565  -1.0097   8.4464   8.4464

          k = 0.0000 0.0000 0.3536 (  4208 PWs)   bands (ev):

    -6.7861   6.4973   7.3352   7.3352

          k =-0.5303 0.5303-0.1768 (  4254 PWs)   bands (ev):

    -3.4704   1.0297   4.8778   6.6599

          k =-0.3536 0.3536 0.0000 (  4241 PWs)   bands (ev):

    -4.8390   2.8166   4.2344   8.2751

          k = 0.0000 0.0000-0.7071 (  4264 PWs)   bands (ev):

    -0.9891  -0.9891   5.4165   5.4165

          k = 0.3536 0.0000-0.7071 (  4240 PWs)   bands (ev):

    -0.4124  -0.4124   3.7410   3.7410

     highest occupied level (ev):    10.8985

!    total energy              =     -22.71717281 Ry
     Harris-Foulkes estimate   =     -22.71717281 Ry
     estimated scf accuracy    <          9.2E-10 Ry

     The total energy is the sum of the following terms:

     one-electron contribution =       6.41670545 Ry
     hartree contribution      =       2.07635266 Ry
     xc contribution           =      -6.87562663 Ry
     ewald contribution        =     -24.33460429 Ry

     convergence has been achieved in   6 iterations

     Writing output data file pwscf.save/

     init_run     :      0.08s CPU      0.10s WALL (       1 calls)
     electrons    :      0.43s CPU      0.47s WALL (       1 calls)

     Called by init_run:
     wfcinit      :      0.03s CPU      0.04s WALL (       1 calls)
     potinit      :      0.01s CPU      0.02s WALL (       1 calls)
     hinit0       :      0.02s CPU      0.02s WALL (       1 calls)

     Called by electrons:
     c_bands      :      0.31s CPU      0.33s WALL (       7 calls)
     sum_band     :      0.06s CPU      0.06s WALL (       7 calls)
     v_of_rho     :      0.06s CPU      0.06s WALL (       7 calls)
     mix_rho      :      0.01s CPU      0.01s WALL (       7 calls)

     Called by c_bands:
     init_us_2    :      0.00s CPU      0.00s WALL (     120 calls)
     cegterg      :      0.30s CPU      0.32s WALL (      56 calls)

     Called by sum_band:

     Called by *egterg:
     h_psi        :      0.27s CPU      0.29s WALL (     168 calls)
     g_psi        :      0.00s CPU      0.00s WALL (     104 calls)
     cdiaghg      :      0.01s CPU      0.01s WALL (     152 calls)

     Called by h_psi:
     h_psi:pot    :      0.27s CPU      0.29s WALL (     168 calls)
     h_psi:calbec :      0.01s CPU      0.01s WALL (     168 calls)
     vloc_psi     :      0.26s CPU      0.28s WALL (     168 calls)
     add_vuspsi   :      0.00s CPU      0.00s WALL (     168 calls)

     General routines
     calbec       :      0.01s CPU      0.01s WALL (     168 calls)
     fft          :      0.03s CPU      0.03s WALL (      71 calls)
     ffts         :      0.00s CPU      0.00s WALL (       7 calls)
     fftw         :      0.28s CPU      0.30s WALL (    1524 calls)

     Parallel routines
     fft_scatt_xy :      0.03s CPU      0.04s WALL (    1602 calls)
     fft_scatt_yz :      0.13s CPU      0.14s WALL (    1602 calls)

     PWSCF        :     0.54s CPU         0.63s WALL


   This run was terminated on:  13: 8:26  27Sep2021            

=------------------------------------------------------------------------------=
   JOB DONE.
=------------------------------------------------------------------------------=
