  Input file(s): dmc.in.xml 

=====================================================
                    QMCPACK 3.11.9

       (c) Copyright 2003-  QMCPACK developers

                    Please cite:
 J. Kim et al. J. Phys. Cond. Mat. 30 195901 (2018)
      https://doi.org/10.1088/1361-648X/aab9c3

  Git branch: develop
  Last git commit: 1e04b4793bbdadcd1bcdf36287c3837f2cf87452-dirty
  Last git commit date: Thu Oct 7 17:34:02 2021 -0500
  Last git commit subject: Merge pull request #3518 from williamfgc/ci-afqmc-docs
=====================================================
  Global options 

  Total number of MPI ranks = 16
  Number of MPI groups      = 1
  MPI group ID              = 0
  Number of ranks in group  = 16
  MPI ranks per node        = 16
  OMP 1st level threads     = 1
  OMP nested threading disabled or only 1 thread on the 2nd level

  Precision used in this calculation, see definitions in the manual:
  Base precision      = double
  Full precision      = double

  CPU only build
  Timer build option is enabled. Current timer level is coarse

  Input XML = dmc.in.xml

  Project = dmc
  date    = 2021-10-24 00:49:15 CDT
  host    = abenali


 Random Number
 -------------
  Offset for the random number seeds from input file (mod 1024): 42

  Range of prime numbers to use as seeds over processors and threads = 193-281


 Lattice
 -------
  Lattice is not specified for the Open BC. Add a huge box.
  Simulation cell radius   = 5000000000.000000 bohr
  Wigner-Seitz cell radius = 5000000000.000000 bohr


 Particle Set
 ------------
  Name: ion0   Offload : 

  Initializing the lattice by the global supercell
  All the species have the same mass 1.000000
  Particle set size: 2


 Particle Set
 ------------
  Name: e   Offload : 

  Initializing the lattice by the global supercell
  All the species have the same mass 1.000000
  Particle set size: 8


 Many-body wavefunction
 -------------------
  Name: psi0   Tasking: no

WARNING !!!!!!! Deprecated input style: creating SPO set inside determinantset. Support for this usage will soon be removed. SPO sets should be built outside.
WARNING !!!!!!! Deprecated input style: missing basisset element. LCAO needs an explicit basisset XML element. Fallback on loading an implicit one.
  LCAO: SoaAtomicBasisSet<MultiQuintic,0>
Reading BasisSet from HDF5 file:../QP/QP.h5
<input node="atomicBasisSet" name="gaussian" expandYlm="Gamess" angular="cartesian" elementType="Be" normalized="no" type="Numerical" expM="0" />
  AO BasisSet for Be
   Angular momentum expanded in cartesian functions x^lx y^ly z^lz according to Gamess
   Grid is created by the input parameters in h5
    Using log grid ri = 0.000001 rf = 100.000000 npts = 1001
   R(n,l,m,s) 0 0 0 0
   R(n,l,m,s) 1 0 0 0
   R(n,l,m,s) 2 0 0 0
   R(n,l,m,s) 3 0 0 0
   R(n,l,m,s) 4 1 0 0
   R(n,l,m,s) 5 1 0 0
   R(n,l,m,s) 6 1 0 0
   R(n,l,m,s) 7 2 0 0
   R(n,l,m,s) 8 2 0 0
   R(n,l,m,s) 9 3 0 0
Expanding Ylm (angular function) according to Gamess using cartesian gaussians
Adding 1 cartesian gaussian orbitals for l= 0
Adding 1 cartesian gaussian orbitals for l= 0
Adding 1 cartesian gaussian orbitals for l= 0
Adding 1 cartesian gaussian orbitals for l= 0
Adding 3 cartesian gaussian orbitals for l= 1
Adding 3 cartesian gaussian orbitals for l= 1
Adding 3 cartesian gaussian orbitals for l= 1
Adding 6 cartesian gaussian orbitals for l= 2
Adding 6 cartesian gaussian orbitals for l= 2
Adding 10 cartesian gaussian orbitals for l= 3
  Setting cutoff radius 700668355.620907

   Maximum Angular Momentum  = 3
   Number of Radial functors = 10
   Basis size                = 35

  Created SPOSet builder named 'LCAOBSet' of type molecularorbital
WARNING !!!!!!! Deprecated input style: creating SPO set inside determinantset. Support for this usage will soon be removed. SPO sets should be built outside.
Creating SPOSet in SlaterDetBuilder::put(xmlNodePtr cur).
spo_name = spo-up

     Single particle orbitals (SPO)
     ------------------------------
      Name: spo-up   Type: LCAO   Builder class name: LCAOrbitalBuilder

        Using cusp correction.
Reading cusp info from : ../QP/cusp.spo-up.cuspInfo.xml
Found precomputed cusp data for spo set: spo-up
WARNING !!!!!!! Deprecated input style: creating SPO set inside determinantset. Support for this usage will soon be removed. SPO sets should be built outside.
Creating SPOSet in SlaterDetBuilder::put(xmlNodePtr cur).
spo_name = spo-dn

     Single particle orbitals (SPO)
     ------------------------------
      Name: spo-dn   Type: LCAO   Builder class name: LCAOrbitalBuilder

        Using cusp correction.
Reading cusp info from : ../QP/cusp.spo-dn.cuspInfo.xml
Found precomputed cusp data for spo set: spo-dn

   Multi Slater determinants
   -------------------------

    Using Bryan's table method.
      Creating base determinant (0) for MSD expansion. 
      Creating base determinant (1) for MSD expansion. 
    Using the table method with precomputing. Faster
Found Multideterminants in H5 File
Found determinant list. 
  H5 code path implicitly assumes NC0 = NC1 = ...  = 0
NE0 = 4, NE1 = 4, 
Reading CI expansion from HDF5:../QP/QP.h5
 Done reading 395 CIs from H5!
 Sorting unique CIs
 Done Sorting unique CIs
Found 395 terms in the MSD expansion.
Norm of ci vector (sum of ci^2): 1.000000
Found 43 unique group0 determinants.
Found 42 unique group1 determinants.
Number of terms in pairs array: 24
Number of terms in pairs array: 24
CI coefficients are not optimizable. 
  Added a fermionic WaveFunctionComponent MultiSlaterDeterminantFast

   Jastrow
   -------
    Name: J1   Type: One-Body   Function: bspline

    Radial function for element: Be - e
     Number of parameters: 12
     Cusp: 0.000000
     Cutoff radius: 6.000000

       Name                        Value Type Recompute Use Index
     ------ ---------------------------- ---- --------- --- -----
      eBe_0                -5.196661e-01    1         1  ON     0
      eBe_1                -4.047566e-01    1         1  ON     1
      eBe_2                -2.493900e-01    1         1  ON     2
      eBe_3                -1.935221e-01    1         1  ON     3
      eBe_4                -1.527589e-01    1         1  ON     4
      eBe_5                -9.939273e-02    1         1  ON     5
      eBe_6                -7.459357e-02    1         1  ON     6
      eBe_7                -4.937618e-02    1         1  ON     7
      eBe_8                -2.999663e-02    1         1  ON     8
      eBe_9                -1.968717e-02    1         1  ON     9
     eBe_10                -1.063468e-02    1         1  ON    10
     eBe_11                -4.921594e-03    1         1  ON    11


   Jastrow
   -------
    Name: J2   Type: Two-Body   Function: bspline

    Radial function for species: u - u
     Number of parameters: 16
     Cusp: -0.25
     Cutoff radius: 8

      Name                        Value Type Recompute Use Index
     ----- ---------------------------- ---- --------- --- -----
      uu_0                 2.552333e-01    1         1  ON     0
      uu_1                 1.819648e-01    1         1  ON     1
      uu_2                 1.275206e-01    1         1  ON     2
      uu_3                 9.054337e-02    1         1  ON     3
      uu_4                 6.361274e-02    1         1  ON     4
      uu_5                 4.600402e-02    1         1  ON     5
      uu_6                 3.488821e-02    1         1  ON     6
      uu_7                 2.407837e-02    1         1  ON     7
      uu_8                 1.602990e-02    1         1  ON     8
      uu_9                 9.468829e-03    1         1  ON     9
     uu_10                 5.298496e-03    1         1  ON    10
     uu_11                 1.483103e-03    1         1  ON    11
     uu_12                -7.397755e-04    1         1  ON    12
     uu_13                -1.627171e-04    1         1  ON    13
     uu_14                 7.413097e-05    1         1  ON    14
     uu_15                 1.196100e-04    1         1  ON    15

    Radial function for species: u - d
     Number of parameters: 16
     Cusp: -0.5
     Cutoff radius: 8

      Name                        Value Type Recompute Use Index
     ----- ---------------------------- ---- --------- --- -----
      ud_0                 4.327072e-01    1         1  ON     0
      ud_1                 2.549083e-01    1         1  ON     1
      ud_2                 1.371956e-01    1         1  ON     2
      ud_3                 6.584982e-02    1         1  ON     3
      ud_4                 2.850674e-02    1         1  ON     4
      ud_5                 1.359719e-02    1         1  ON     5
      ud_6                 4.498382e-03    1         1  ON     6
      ud_7                -7.597007e-04    1         1  ON     7
      ud_8                -3.792905e-03    1         1  ON     8
      ud_9                -4.757426e-03    1         1  ON     9
     ud_10                -4.980069e-03    1         1  ON    10
     ud_11                -4.979052e-03    1         1  ON    11
     ud_12                -4.003267e-03    1         1  ON    12
     ud_13                -1.142750e-03    1         1  ON    13
     ud_14                 1.990410e-04    1         1  ON    14
     ud_15                 5.874234e-04    1         1  ON    15


   Jastrow
   -------
    Name: J3   Type: eeI   Function: polynomial

     Ion: Be   electron-electron: u - u
      Number of parameters for e-e: 3, for e-I: 3
      Cutoff radius: 5

         Name                        Value Type Recompute Use Index
      ------- ---------------------------- ---- --------- --- -----
       uuBe_0                -4.563667e-03    1         1  ON     0
       uuBe_1                -3.457934e-04    1         1  ON     1
       uuBe_2                 1.465561e-02    1         1  ON     2
       uuBe_3                 9.898032e-04    1         1  ON     3
       uuBe_4                -3.782343e-03    1         1  ON     4
       uuBe_5                -5.272101e-04    1         1  ON     5
       uuBe_6                 4.154964e-03    1         1  ON     6
       uuBe_7                 5.226373e-03    1         1  ON     7
       uuBe_8                 1.803622e-02    1         1  ON     8
       uuBe_9                 5.481057e-05    1         1  ON     9
      uuBe_10                 2.477806e-03    1         1  ON    10
      uuBe_11                -1.374766e-02    1         1  ON    11
      uuBe_12                -6.047359e-03    1         1  ON    12
      uuBe_13                -1.179501e-03    1         1  ON    13
      uuBe_14                 3.040825e-03    1         1  ON    14
      uuBe_15                 5.999777e-04    1         1  ON    15
      uuBe_16                -7.403900e-03    1         1  ON    16
      uuBe_17                -5.781607e-04    1         1  ON    17
      uuBe_18                -3.951594e-03    1         1  ON    18
      uuBe_19                 5.761553e-03    1         1  ON    19
      uuBe_20                 7.362298e-03    1         1  ON    20
      uuBe_21                 4.670058e-03    1         1  ON    21
      uuBe_22                -2.660915e-03    1         1  ON    22
      uuBe_23                -4.987306e-03    1         1  ON    23
      uuBe_24                -2.116855e-03    1         1  ON    24
      uuBe_25                 1.345230e-03    1         1  ON    25

     Ion: Be   electron-electron: u - d
      Number of parameters for e-e: 3, for e-I: 3
      Cutoff radius: 5

         Name                        Value Type Recompute Use Index
      ------- ---------------------------- ---- --------- --- -----
       udBe_0                 4.941680e-04    1         1  ON     0
       udBe_1                -2.692627e-03    1         1  ON     1
       udBe_2                -3.421322e-03    1         1  ON     2
       udBe_3                -2.008463e-03    1         1  ON     3
       udBe_4                 1.046511e-03    1         1  ON     4
       udBe_5                 4.641242e-04    1         1  ON     5
       udBe_6                -7.830747e-03    1         1  ON     6
       udBe_7                 1.035289e-03    1         1  ON     7
       udBe_8                -7.868530e-04    1         1  ON     8
       udBe_9                 6.569782e-03    1         1  ON     9
      udBe_10                -6.409859e-04    1         1  ON    10
      udBe_11                 3.362559e-03    1         1  ON    11
      udBe_12                -3.672242e-03    1         1  ON    12
      udBe_13                -4.203027e-03    1         1  ON    13
      udBe_14                 4.057973e-03    1         1  ON    14
      udBe_15                -1.475235e-05    1         1  ON    15
      udBe_16                -7.155535e-03    1         1  ON    16
      udBe_17                 4.772285e-03    1         1  ON    17
      udBe_18                -1.083379e-02    1         1  ON    18
      udBe_19                 7.595515e-03    1         1  ON    19
      udBe_20                 3.098980e-03    1         1  ON    20
      udBe_21                 1.523291e-03    1         1  ON    21
      udBe_22                -1.728585e-03    1         1  ON    22
      udBe_23                 4.128712e-04    1         1  ON    23
      udBe_24                -1.804587e-03    1         1  ON    24
      udBe_25                 8.091900e-04    1         1  ON    25

  QMCHamiltonian::addOperator Kinetic to H, physical Hamiltonian 

 Hamiltonian and observables
 ---------------------------
  Name: h0

  QMCHamiltonian::addOperator ElecElec to H, physical Hamiltonian 
QMCHamiltonian::addOperatorType added type coulomb named ElecElec
  QMCHamiltonian::addOperator IonIon to H, physical Hamiltonian 
QMCHamiltonian::addOperatorType added type coulomb named IonIon
  QMCHamiltonian::addOperator ElecIon to H, physical Hamiltonian 
QMCHamiltonian::addOperatorType added type coulomb named ElecIon

  QMCHamiltonian::add2WalkerProperty added
    4 to P::PropertyList 
    0 to P::Collectables 
    starting Index of the observables in P::PropertyList = 9
ParticleSetPool::randomize 1 ParticleSet.
<init source="ion0" target="e">
</init>
  Initialization Execution time = 0.322 secs
=========================================================
 Summary of QMC systems 
=========================================================
ParticleSetPool has: 

  ParticleSet 'e' contains 8 particles :  u(4) d(4)

    u  5.4567462879e-01  1.1988757063e+00 -9.0826000696e-01
    u -1.4692950359e+00 -1.0839144827e-01 -6.2403797277e-01
    u  5.8961737838e+00 -3.2605087954e-01 -9.3126776613e-01
    u  5.4250078088e+00  6.2887151030e-01  1.2421727655e+00
    d  1.2294858156e+00  7.3690730451e-01 -7.1086725473e-01
    d -3.4676133570e-01 -1.3269143703e+00  8.2404783227e-01
    d  4.6578601194e+00 -1.2450998705e+00 -1.0046272547e+00
    d  3.1715465712e+00  6.1079977841e-01  2.0107621546e-01

  Distance table for dissimilar particles (A-B):
    source: ion0  target: e
    Using structure-of-arrays (SoA) data layout
    Distance computations use open boundary conditions in 3D.

  Distance table for similar particles (A-A):
    source/target: e
    Using structure-of-arrays (SoA) data layout
    Distance computations use open boundary conditions in 3D.


  ParticleSet 'ion0' contains 2 particles :  Be(2)

    Be  0.0000000000e+00  0.0000000000e+00  0.0000000000e+00
    Be  4.6366376900e+00  0.0000000000e+00  0.0000000000e+00

  Distance table for similar particles (A-A):
    source/target: ion0
    Using structure-of-arrays (SoA) data layout
    Distance computations use open boundary conditions in 3D.


  Hamiltonian h0
  Kinetic         Kinetic energy
  ElecElec        CoulombAB source=e

  IonIon          CoulombAA source/target ion0

  ElecIon         CoulombAA source/target ion0



=========================================================
  Start VMC
  File Root dmc.s000 append = no 
=========================================================
Resetting walkers
  Adding 1 walkers to 0 existing sets
  Total number of walkers: 1.6000000000e+01
  Total weight: 1.6000000000e+01
  Resetting Properties of the walkers 1 x 13

<vmc function="put">
  qmc_counter=0  my_counter=0
  time step      = 1.0000000000e-01
  blocks         = 800
  steps          = 20
  substeps       = 3
  current        = 0
  target samples = 4.0960000000e+03
  walkers/mpi    = 1

  stepsbetweensamples = 62
<parameter name="blocks">800</parameter>
<parameter name="blocks_between_recompute">0</parameter>
<parameter name="check_properties">100</parameter>
<parameter name="checkproperties">100</parameter>
<parameter name="current">0</parameter>
<parameter name="dmcwalkersperthread">2.5600000000e+02</parameter>
<parameter name="max_seconds">360000</parameter>
<parameter name="maxcpusecs">360000</parameter>
<parameter name="record_configs">0</parameter>
<parameter name="record_walkers">62</parameter>
<parameter name="recordconfigs">0</parameter>
<parameter name="recordwalkers">62</parameter>
<parameter name="samples">4.0960000000e+03</parameter>
<parameter name="samplesperthread">2.5600000000e+02</parameter>
<parameter name="spinmass">1.0000000000e+00</parameter>
<parameter name="steps">20</parameter>
<parameter name="stepsbetweensamples">62</parameter>
<parameter name="store_configs">0</parameter>
<parameter name="storeconfigs">0</parameter>
<parameter name="sub_steps">3</parameter>
<parameter name="substeps">3</parameter>
<parameter name="tau">1.0000000000e-01</parameter>
<parameter name="time_step">1.0000000000e-01</parameter>
<parameter name="timestep">1.0000000000e-01</parameter>
<parameter name="use_drift">yes</parameter>
<parameter name="usedrift">yes</parameter>
<parameter name="walkers">1</parameter>
<parameter name="warmup_steps">100</parameter>
<parameter name="warmupsteps">100</parameter>
  DumpConfig==false Nothing (configurations, state) will be saved.
  Walker Samples are dumped every 62 steps.
</vmc>
  Set drift_modifier UNR parameter a = 1.0000000000e+00
  Adding a default LocalEnergyEstimator for the MainEstimator 
  Initial partition of walkers 0 1 

  Using Particle by Particle moves
  Walker moves with drift
  Total Sample Size   =4096
  Walker distribution on root = 0 1 
========================================================================
--- Memory usage report : Memory Usage after the buffer registration ---
========================================================================
Available memory on node 0, free + buffers :   16279 MiB
Memory footprint by rank 0 on node 0       :      99 MiB
========================================================================
  Anonymous Buffer size per walker : 49016 Bytes.
MEMORY increase 0 MB VMC::resetRun
====================================================
  SimpleFixedNodeBranch::finalize after a VMC block
    QMC counter        = 0
    time step          = 0.1
    reference energy   = -29.3331
    reference variance = 0.104698
====================================================
  QMC Execution time = 1.0946e+01 secs
BRANCH resetRun
 SimpleFixedNodeBranch::resetRun detected changes in <parameter>'s 
 BranchMode : 0000001100 0000001100
 iParam (old):                100                 1                 0              4096                16                16                 1                 0
 iParam (new):                 50                 1                 0              4096                16                16                 1                 0
 vParam (old):   1.0000000000e-01  1.0000000000e-01 -2.9333057221e+01 -2.9333057221e+01  1.0000000000e+00  1.0000000000e+00  1.0000000000e+00  1.0000000000e+00  1.0469761652e-01 -2.9333057221e+01  1.0000000000e+00  1.0000000000e+00  1.0000000000e+01  1.0000000000e+00  1.0000000000e+00  1.0000000000e+00  1.0000000000e+00
 vParam (new):   1.0000000000e-02  1.0000000000e-01 -2.9333057221e+01 -2.9333057221e+01  1.0000000000e+00  1.0000000000e+00  1.0000000000e+00  1.0000000000e+00  1.0469761652e-01 -2.9333057221e+01  1.0000000000e+00  1.0000000000e+00  1.0000000000e+01  1.0000000000e+00  1.0000000000e+00  1.0000000000e+00  1.0000000000e+00

=========================================================
  Start DMC
  File Root dmc.s001 append = no 
=========================================================
Using existing walkers 
  Resetting Properties of the walkers 1 x 13
  Set drift_modifier UNR parameter a = 1.0000000000e+00
  Cannot make clones again. Use existing 1 clones
  Total number of walkers: 4.0960000000e+03
  Total weight: 4.0960000000e+03
  Creating WalkerController: target  number of walkers = 4096
  Using WalkerControlMPI for dynamic population control.
  START ALL OVER 
  WalkerControlBase parameters 
    maxCopy = 2
    Max Walkers per MPI rank 513
    Min Walkers per MPI rank 52
    Using non-blocking send/recv
  QMC counter      = 1
  time step        = 1.0000000000e-02
  effective time step = 1.0000000000e-02
  trial energy     = -2.9333057221e+01
  reference energy = -2.9333057221e+01
  Feedback = 1.0000000000e+00
  reference variance = 1.0469761652e-01
  target walkers = 4096
  branching cutoff scheme classic
  branch cutoff = 5.0000000000e+01 7.5000000000e+01
  Max and minimum walkers per node= 513 52
  QMC Status (BranchMode) = 0000001101
Using DMCUpdatePbyPWithRejectionFast
  Initial partition of walkers on a node: 0 256 
  Updates by particle-by-particle moves
  DMC moves are rejected when a node crossing is detected
========================================================================
--- Memory usage report : Memory Usage after the buffer registration ---
========================================================================
Available memory on node 0, free + buffers :   15966 MiB
Memory footprint by rank 0 on node 0       :     123 MiB
========================================================================
SimpleFixedNodeBranch::checkParameters 
  Average Energy of a population  = -29.3331
  Energy Variance = 0.104698

  Fluctuating population
  Persistent walkers are killed after 1 MC sweeps
  BranchInterval = 1
  Steps per block = 20
  Number of blocks = 100

  DMC Engine Initialization = 5.2639007568e-02 secs

 Warmup is completed after 50

  TauEff     = 9.6355490654e-03
 TauEff/Tau = 9.6355490654e-01
  Etrial     = -2.9389220171e+01
 Running average of energy = -2.9335644110e+01
                  Variance = 1.0475035805e-01
branch cutoff = 1.0000000000e+01 1.5000000000e+01
====================================================
  SimpleFixedNodeBranch::finalize after a DMC block
    QMC counter                   = 1
    time step                     = 0.01
    effective time step           = 0.00963568
    trial energy                  = -29.3419
    reference energy              = -29.3375
    reference variance            = 0.10475
    target walkers                = 4096
    branch cutoff                 = 10 15
    Max and minimum walkers per node= 513 52
    Feedback                      = 1
    QMC Status (BranchMode)       = 0000001111
====================================================
  QMC Execution time = 1.4122e+02 secs
BRANCH resetRun
 SimpleFixedNodeBranch::resetRun detected changes in <parameter>'s 
 BranchMode : 0000001111 0000001111
  WalkerControlBase parameters 
    maxCopy = 2
    Max Walkers per MPI rank 513
    Min Walkers per MPI rank 52
    Using non-blocking send/recv
 iParam (old):                  0                 1                 1              4096               513                52                 1                 0
 iParam (new):                100                 1                 1              4096               513                52                 1                 0
 vParam (old):   1.0000000000e-02  9.6356785015e-03 -2.9341867027e+01 -2.9337482124e+01 -2.9335823755e+01  1.5000000000e+01  1.0000000000e+01  2.0000000000e-01  1.0475035805e-01 -5.7237425965e+04  1.9510000000e+03  1.0000000000e+00  1.0000000000e+01  1.0000000000e+00  1.0000000000e+00  1.0000000000e+00  1.0000000000e+00
 vParam (new):   5.0000000000e-03  9.6356785015e-03 -2.9341867027e+01 -2.9337482124e+01 -2.9335823755e+01  1.5000000000e+01  1.0000000000e+01  2.0000000000e-01  1.0475035805e-01 -5.7237425965e+04  1.9510000000e+03  1.0000000000e+00  1.0000000000e+01  1.0000000000e+00  1.0000000000e+00  1.0000000000e+00  1.0000000000e+00

 Using branching cutoff scheme classic

=========================================================
  Start DMC
  File Root dmc.s002 append = no 
=========================================================
Using existing walkers 
  Resetting Properties of the walkers 1 x 13
  Set drift_modifier UNR parameter a = 1.0000000000e+00
  Cannot make clones again. Use existing 1 clones
  Total number of walkers: 4.1140000000e+03
  Total weight: 4.1140000000e+03
  WalkerControlBase parameters 
    maxCopy = 2
    Max Walkers per MPI rank 513
    Min Walkers per MPI rank 52
    Using non-blocking send/recv
  QMC counter      = 2
  time step        = 5.0000000000e-03
  effective time step = 9.6356785015e-03
  trial energy     = -2.9341867027e+01
  reference energy = -2.9337482124e+01
  Feedback = 1.0000000000e+00
  reference variance = 1.0475035805e-01
  target walkers = 4096
  branching cutoff scheme classic
  branch cutoff = 1.0000000000e+01 1.5000000000e+01
  Max and minimum walkers per node= 513 52
  QMC Status (BranchMode) = 0000001101
Using DMCUpdatePbyPWithRejectionFast
  Initial partition of walkers on a node: 0 257 
  Updates by particle-by-particle moves
  DMC moves are rejected when a node crossing is detected
========================================================================
--- Memory usage report : Memory Usage after the buffer registration ---
========================================================================
Available memory on node 0, free + buffers :   16087 MiB
Memory footprint by rank 0 on node 0       :     137 MiB
========================================================================
SimpleFixedNodeBranch::checkParameters 
  Average Energy of a population  = -29.3374
  Energy Variance = 0.109192

  Fluctuating population
  Persistent walkers are killed after 1 MC sweeps
  BranchInterval = 1
  Steps per block = 40
  Number of blocks = 100

  DMC Engine Initialization = 1.3868117332e-01 secs

 Warmup is completed after 100

  TauEff     = 4.9258651156e-03
 TauEff/Tau = 9.8517302312e-01
  Etrial     = -2.9430908609e+01
 Running average of energy = -2.9336349298e+01
                  Variance = 1.1280311619e-01
branch cutoff = 1.0000000000e+01 1.5000000000e+01
====================================================
  SimpleFixedNodeBranch::finalize after a DMC block
    QMC counter                   = 2
    time step                     = 0.005
    effective time step           = 0.0049252
    trial energy                  = -29.3368
    reference energy              = -29.3375
    reference variance            = 0.112803
    target walkers                = 4096
    branch cutoff                 = 10 15
    Max and minimum walkers per node= 513 52
    Feedback                      = 1
    QMC Status (BranchMode)       = 0000001111
====================================================
  QMC Execution time = 3.2768e+02 secs
BRANCH resetRun
 SimpleFixedNodeBranch::resetRun detected changes in <parameter>'s 
 BranchMode : 0000001111 0000001111
  WalkerControlBase parameters 
    maxCopy = 2
    Max Walkers per MPI rank 513
    Min Walkers per MPI rank 52
    Using non-blocking send/recv
 iParam (old):                  0                 1                 2              4096               513                52                 1                 0
 iParam (new):                200                 1                 2              4096               513                52                 1                 0
 vParam (old):   5.0000000000e-03  4.9252015427e-03 -2.9336812227e+01 -2.9337544917e+01 -2.9336394702e+01  1.5000000000e+01  1.0000000000e+01  2.0000000000e-01  1.1280311619e-01 -1.1444576157e+05  3.9010000000e+03  1.0000000000e+00  1.0000000000e+01  1.0000000000e+00  1.0000000000e+00  1.0000000000e+00  1.0000000000e+00
 vParam (new):   2.5000000000e-03  4.9252015427e-03 -2.9336812227e+01 -2.9337544917e+01 -2.9336394702e+01  1.5000000000e+01  1.0000000000e+01  2.0000000000e-01  1.1280311619e-01 -1.1444576157e+05  3.9010000000e+03  1.0000000000e+00  1.0000000000e+01  1.0000000000e+00  1.0000000000e+00  1.0000000000e+00  1.0000000000e+00

 Using branching cutoff scheme classic

=========================================================
  Start DMC
  File Root dmc.s003 append = no 
=========================================================
Using existing walkers 
  Resetting Properties of the walkers 1 x 13
  Set drift_modifier UNR parameter a = 1.0000000000e+00
  Cannot make clones again. Use existing 1 clones
  Total number of walkers: 4.0930000000e+03
  Total weight: 4.0930000000e+03
  WalkerControlBase parameters 
    maxCopy = 2
    Max Walkers per MPI rank 513
    Min Walkers per MPI rank 52
    Using non-blocking send/recv
  QMC counter      = 3
  time step        = 2.5000000000e-03
  effective time step = 4.9252015427e-03
  trial energy     = -2.9336812227e+01
  reference energy = -2.9337544917e+01
  Feedback = 1.0000000000e+00
  reference variance = 1.1280311619e-01
  target walkers = 4096
  branching cutoff scheme classic
  branch cutoff = 1.0000000000e+01 1.5000000000e+01
  Max and minimum walkers per node= 513 52
  QMC Status (BranchMode) = 0000001101
Using DMCUpdatePbyPWithRejectionFast
  Initial partition of walkers on a node: 0 255 
  Updates by particle-by-particle moves
  DMC moves are rejected when a node crossing is detected
========================================================================
--- Memory usage report : Memory Usage after the buffer registration ---
========================================================================
Available memory on node 0, free + buffers :   15868 MiB
Memory footprint by rank 0 on node 0       :     148 MiB
========================================================================
SimpleFixedNodeBranch::checkParameters 
  Average Energy of a population  = -29.3375
  Energy Variance = 0.107475

  Fluctuating population
  Persistent walkers are killed after 1 MC sweeps
  BranchInterval = 1
  Steps per block = 80
  Number of blocks = 100

  DMC Engine Initialization = 8.3889007568e-02 secs

 Warmup is completed after 200

  TauEff     = 2.4852509447e-03
 TauEff/Tau = 9.9410037789e-01
  Etrial     = -2.9534139626e+01
 Running average of energy = -2.9338153530e+01
                  Variance = 1.0633975028e-01
branch cutoff = 1.0000000000e+01 1.5000000000e+01
====================================================
  SimpleFixedNodeBranch::finalize after a DMC block
    QMC counter                   = 3
    time step                     = 0.0025
    effective time step           = 0.00248536
    trial energy                  = -29.3468
    reference energy              = -29.3373
    reference variance            = 0.10634
    target walkers                = 4096
    branch cutoff                 = 10 15
    Max and minimum walkers per node= 513 52
    Feedback                      = 1
    QMC Status (BranchMode)       = 0000001111
====================================================
  QMC Execution time = 6.7433e+02 secs
  Total Execution time = 1.1542e+03 secs

=========================================================
  A new xml input file : dmc.s003.cont.xml

Use --enable-timers=<value> command line option to increase or decrease level of timing information
Stack timer profile
Timer      Inclusive_time  Exclusive_time  Calls       Time_per_call
Total      1154.5062     0.0002              1    1154.506245136
  DMC      1143.2376  1143.2376              3     381.079209646
  Startup     0.3221     0.3221              1       0.322091103
  VMC        10.9464    10.9464              1      10.946367025

QMCPACK execution completed successfully
