#INFO: **** input file is /home/abenali/Work/WorkShop/qmcpack_workshop_2021/qmc_workshop_2021/week4_molecules/Be2/00_dft/runs/Be2/cc-pvqz/SCAN/SCF/scf.py ****

#! /usr/bin/env python3

import numpy as np
from numpy import array

### generated pyscfimport text ###
from pyscf import df, scf, dft
### end generated pyscfimport text ###





### generated system text ###
from pyscf import gto as gto_loc
mol = gto_loc.Mole()
mol.verbose  = 5
mol.atom     = '''
               Be   0.00000000   0.00000000   0.00000000
               Be   2.45360300   0.00000000   0.00000000
               '''
mol.basis    = 'cc-pvqz'
mol.unit     = 'A'
mol.charge   = 0
mol.spin     = 0
mol.symmetry = True
mol.build()
### end generated system text ###




### generated calculation text ###
mf = scf.ROKS(mol).density_fit()
mf.max_cycle=200
mf.level_shift=0.0
mf.xc          = 'SCAN'
mf.tol         = '1e-10'
e_scf = mf.kernel()
### end generated calculation text ###



### generated conversion text ###
from PyscfToQmcpack import savetoqmcpack
savetoqmcpack(mol,mf,'scf')
### end generated conversion text ###

#INFO: ******************** input file end ********************


System: uname_result(system='Linux', node='abenali', release='5.11.0-38-generic', version='#42~20.04.1-Ubuntu SMP Tue Sep 28 20:41:07 UTC 2021', machine='x86_64', processor='x86_64')  Threads 1
Python 3.7.11 (default, Sep  9 2021, 02:06:38) 
[GCC 9.3.0]
numpy 1.20.3  scipy 1.6.2
Date: Wed Oct 20 12:23:26 2021
PySCF version 2.0.0a
PySCF path  /home/abenali/Work/src/pyscf
GIT HEAD (branch master) 3e8ba375fd4229f000289589fd02193633380853

[CONFIG] conf_file None
[INPUT] verbose = 5
[INPUT] max_memory = 4000 
[INPUT] num. atoms = 2
[INPUT] num. electrons = 8
[INPUT] charge = 0
[INPUT] spin (= nelec alpha-beta = 2S) = 0
[INPUT] symmetry True subgroup None
[INPUT] Mole.unit = A
[INPUT]  1 Be     0.000000000000   0.000000000000   0.000000000000 AA    0.000000000000   0.000000000000   0.000000000000 Bohr
[INPUT]  2 Be     2.453603000000   0.000000000000   0.000000000000 AA    4.636637688411   0.000000000000   0.000000000000 Bohr
[INPUT] ---------------- BASIS SET ---------------- 
[INPUT] l, kappa, [nprim/nctr], expnt,             c_1 c_2 ...
[INPUT] Be
[INPUT] 0    0    [9    /2   ]  14630             9.2e-05 -1.7e-05
                                2191              0.000713 -0.00013
                                498.2             0.003735 -0.000679
                                140.9             0.015468 -0.002857
                                45.86             0.052874 -0.009813
                                16.47             0.145694 -0.028609
                                6.319             0.302681 -0.06376
                                2.535             0.404936 -0.117231
                                1.035             0.222387 -0.121202
[INPUT] 0    0    [1    /1   ]  0.2528               1
[INPUT] 0    0    [1    /1   ]  0.1052               1
[INPUT] 0    0    [1    /1   ]  0.04261              1
[INPUT] 1    0    [3    /1   ]  14.03             0.004099
                                3.168             0.025626
                                0.9024            0.103768
[INPUT] 1    0    [1    /1   ]  0.3036               1
[INPUT] 1    0    [1    /1   ]  0.113                1
[INPUT] 1    0    [1    /1   ]  0.04286              1
[INPUT] 2    0    [1    /1   ]  1.072                1
[INPUT] 2    0    [1    /1   ]  0.441                1
[INPUT] 2    0    [1    /1   ]  0.1811               1
[INPUT] 3    0    [1    /1   ]  0.481                1
[INPUT] 3    0    [1    /1   ]  0.255                1
[INPUT] 4    0    [1    /1   ]  0.415                1

nuclear repulsion = 3.45077641929848
point group symmetry = Dooh
num. orbitals of irrep A1g = 15
num. orbitals of irrep E1gx = 10
num. orbitals of irrep E1gy = 10
num. orbitals of irrep A1u = 15
num. orbitals of irrep E1uy = 10
num. orbitals of irrep E1ux = 10
num. orbitals of irrep E2gx = 6
num. orbitals of irrep E2gy = 6
num. orbitals of irrep E3gx = 3
num. orbitals of irrep E3gy = 3
num. orbitals of irrep E2uy = 6
num. orbitals of irrep E2ux = 6
num. orbitals of irrep E3uy = 3
num. orbitals of irrep E3ux = 3
num. orbitals of irrep E4gx = 1
num. orbitals of irrep E4gy = 1
num. orbitals of irrep E4uy = 1
num. orbitals of irrep E4ux = 1
number of shells = 28
number of NR pGTOs = 136
number of NR cGTOs = 110
basis = cc-pvqz
ecp = {}
CPU time:         0.45


******** <class 'pyscf.df.df_jk.density_fit.<locals>.DFHF'> ********
method = DFHF-SymAdaptedROKS-SymAdaptedROHF-ROHF-RHF
initial guess = minao
damping factor = 0
level_shift factor = 0.0
DIIS = <class 'pyscf.scf.diis.CDIIS'>
diis_start_cycle = 1
diis_space = 8
SCF conv_tol = 1e-09
SCF conv_tol_grad = None
SCF max_cycles = 200
direct_scf = True
direct_scf_tol = 1e-13
chkfile to save SCF result = /home/abenali/Work/WorkShop/qmcpack_workshop_2021/qmc_workshop_2021/week4_molecules/Be2/00_dft/runs/Be2/cc-pvqz/SCAN/SCF/tmpv1ce039e
max_memory 4000 MB (current use 112 MB)
num. doubly occ = 4  num. singly occ = 0
XC library pyscf.dft.libxc version 5.1.5
    S. Lehtola, C. Steigemann, M. J. Oliveira, and M. A. Marques, SoftwareX 7, 1 (2018)
XC functionals = SCAN
    J. Sun, A. Ruzsinszky, and J. P. Perdew, Phys. Rev. Lett. 115, 036402 (2015)
    J. Sun, A. Ruzsinszky, and J. P. Perdew, Phys. Rev. Lett. 115, 036402 (2015)
radial grids: 
    Treutler-Ahlrichs [JCP 102, 346 (1995); DOI:10.1063/1.469408] (M4) radial grids
    
becke partition: Becke, JCP 88, 2547 (1988); DOI:10.1063/1.454033
pruning grids: <function nwchem_prune at 0x7f267aea1d40>
grids dens level: 3
symmetrized grids: True
atomic radii adjust function: <function treutler_atomic_radii_adjust at 0x7f267aeaa200>
small_rho_cutoff = 1e-07
Freeze 0 electrons in irreps []
    8 free electrons in irreps A1g E1gx E1gy A1u E1uy E1ux E2gx E2gy E3gx E3gy E2uy E2ux E3uy E3ux E4gx E4gy E4uy E4ux
Set gradient conv threshold to 3.16228e-05
atom Be rad-grids = 75, ang-grids = [ 50  50  50  50  50  50  50  50  50  50  50  50  50  50  50  50  50  50
  50  50  50  50  50  50  50  50  86  86  86  86  86  86  86  86  86  86
  86 266 266 266 266 266 266 266 266 302 302 302 302 302 302 302 302 302
 302 302 302 302 302 302 302 302 302 302 302 302 266 266 266 266 266 266
 266 266 266]
tot grids = 26220
Drop grids 790
    CPU time for setting up grids      0.09 sec, wall time      0.09 sec
nelec by numeric integration = [3.99999276 3.99999276]
    CPU time for vxc      1.66 sec, wall time      1.78 sec
Even tempered Gaussians are generated as DF auxbasis for  Be
  ETB auxbasis for Be  [[0, [698.12224, 1]], [0, [349.06112, 1]], [0, [174.53056, 1]], [0, [87.26528, 1]], [0, [43.63264, 1]], [0, [21.81632, 1]], [0, [10.90816, 1]], [0, [5.45408, 1]], [0, [2.72704, 1]], [0, [1.36352, 1]], [0, [0.68176, 1]], [0, [0.34088, 1]], [0, [0.17044, 1]], [0, [0.08522, 1]], [1, [87.5209055988248, 1]], [1, [43.7604527994124, 1]], [1, [21.8802263997062, 1]], [1, [10.9401131998531, 1]], [1, [5.47005659992655, 1]], [1, [2.735028299963275, 1]], [1, [1.3675141499816375, 1]], [1, [0.6837570749908187, 1]], [1, [0.34187853749540936, 1]], [1, [0.17093926874770468, 1]], [1, [0.08546963437385234, 1]], [2, [21.94432, 1]], [2, [10.97216, 1]], [2, [5.48608, 1]], [2, [2.74304, 1]], [2, [1.37152, 1]], [2, [0.68576, 1]], [2, [0.34288, 1]], [2, [0.17144, 1]], [2, [0.08572, 1]]]
num shells = 68, num cGTOs = 184
    CPU time for df-vj      0.12 sec, wall time      0.12 sec
E1 = -45.1574022290556  Ecoul = 17.910163957448855  Exc = -5.5584892275636015
init E= -29.3549510798719
cond(S) = 8315.302398035234
    CPU time for initialize scf      1.90 sec, wall time      2.02 sec
HOMO (A1u) = -0.166183000758493  LUMO (E1ux) = -0.097305509349364
double occ irrep_nelec = [2, 0, 0, 2, 0, 0, 0, 0, 0, 0, 0, 0, 0, 0, 0, 0, 0, 0]
single occ irrep_nelec = [0, 0, 0, 0, 0, 0, 0, 0, 0, 0, 0, 0, 0, 0, 0, 0, 0, 0]
  Roothaan mo_energy =
[-3.96056024 -0.27234497 -0.09353698  0.09318726  0.14195996  0.45430187
  0.59681021  0.62424819  1.08744442  1.63123538  2.09850688  2.28636632
  3.0433335   4.23292898  7.28489533 -0.01914861  0.18009434  0.53456521
  0.62036856  1.28672708  1.59596453  2.15636988  2.63239447  3.03350252
  4.31009468 -0.01914861  0.18009434  0.53456521  0.62036856  1.28672708
  1.59596453  2.15636988  2.63239447  3.03350252  4.31009468 -3.96051346
 -0.166183    0.08478308  0.15333885  0.23945926  0.4957003   0.66106944
  0.87723317  1.16665783  1.6867107   2.27445842  2.74098274  3.00417845
  4.64938753  6.92499051 -0.09730551  0.13386011  0.31327492  0.55777758
  0.88591751  1.41062979  1.9914851   2.20005632  2.69751288  4.15611496
 -0.09730551  0.13386011  0.31327492  0.55777758  0.88591751  1.41062979
  1.9914851   2.20005632  2.69751288  4.15611496  0.29990854  0.76750529
  1.37492683  1.90065388  2.43385015  4.11219179  0.29988875  0.76798574
  1.37471092  1.90033432  2.4334923   4.11218979  0.88991756  2.17695751
  2.4625163   0.88991756  2.17695751  2.4625163   0.40065597  1.04529312
  1.43830269  2.41834137  2.65086802  4.15945024  0.40064268  1.04578742
  1.43818008  2.41879031  2.65136742  4.1593297   0.79184893  1.91481591
  2.40745479  0.79184893  1.91481591  2.40745479  2.00970062  2.00957009
  2.05345432  2.05335914]
nelec by numeric integration = [4.0000001 4.0000001]
    CPU time for vxc      0.90 sec, wall time      0.90 sec
    CPU time for df-vj      0.09 sec, wall time      0.09 sec
E1 = -45.070503737856015  Ecoul = 17.84188950368959  Exc = -5.5351312304059475
cycle= 1 E= -29.3129690452739  delta_E= 0.042  |g|= 0.0198  |ddm|= 0.559
    CPU time for cycle= 1      1.02 sec, wall time      1.02 sec
HOMO (A1u) = -0.168478292696765  LUMO (E1ux) = -0.0982313788752339
double occ irrep_nelec = [2, 0, 0, 2, 0, 0, 0, 0, 0, 0, 0, 0, 0, 0, 0, 0, 0, 0]
single occ irrep_nelec = [0, 0, 0, 0, 0, 0, 0, 0, 0, 0, 0, 0, 0, 0, 0, 0, 0, 0]
  Roothaan mo_energy =
[-3.97481707 -0.27297048 -0.09688145  0.08903706  0.12831875  0.44717891
  0.59263224  0.62844192  1.08530114  1.62348155  2.08282724  2.28196691
  3.03004415  4.21161308  7.26775891 -0.02196869  0.17030342  0.53446021
  0.62331986  1.29587954  1.60011409  2.14474272  2.62783871  3.03884492
  4.2926409  -0.02196869  0.17030342  0.53446021  0.62331986  1.29587954
  1.60011409  2.14474272  2.62783871  3.03884492  4.2926409  -3.97477255
 -0.16847829  0.07669796  0.1477013   0.22916332  0.48493854  0.66064098
  0.87641845  1.16218963  1.68766795  2.28396832  2.7347127   2.98504248
  4.61864268  6.9051903  -0.09823138  0.12388129  0.31350873  0.55897658
  0.88359404  1.41152698  1.98442941  2.19142938  2.69609078  4.13870652
 -0.09823138  0.12388129  0.31350873  0.55897658  0.88359404  1.41152698
  1.98442941  2.19142938  2.69609078  4.13870652  0.30403033  0.77302259
  1.38654581  1.90655074  2.43818216  4.09387026  0.30448202  0.77318236
  1.38617605  1.90592753  2.43738988  4.0934142   0.90236779  2.1990268
  2.47837378  0.90236779  2.1990268   2.47837378  0.40299213  1.05474346
  1.45015721  2.43372725  2.66363196  4.14082799  0.4030438   1.0542301
  1.45037675  2.43386798  2.66267934  4.14122468  0.80489741  1.93078541
  2.42493072  0.80489741  1.93078541  2.42493072  2.04152427  2.04122166
  2.08549882  2.08547429]
nelec by numeric integration = [4.0000001 4.0000001]
    CPU time for vxc      0.90 sec, wall time      0.90 sec
    CPU time for df-vj      0.10 sec, wall time      0.10 sec
E1 = -45.04083734621747  Ecoul = 17.807275206926224  Exc = -5.530361585103132
cycle= 2 E= -29.3131473050959  delta_E= -0.000178  |g|= 0.00387  |ddm|= 0.0845
    CPU time for cycle= 2      1.02 sec, wall time      1.02 sec
HOMO (A1u) = -0.170524211394767  LUMO (E1ux) = -0.100662241404338
double occ irrep_nelec = [2, 0, 0, 2, 0, 0, 0, 0, 0, 0, 0, 0, 0, 0, 0, 0, 0, 0]
single occ irrep_nelec = [0, 0, 0, 0, 0, 0, 0, 0, 0, 0, 0, 0, 0, 0, 0, 0, 0, 0]
  Roothaan mo_energy =
[-3.98044026 -0.27615779 -0.09927856  0.08744865  0.12325923  0.44456716
  0.58923733  0.62556605  1.08181073  1.62023548  2.07869756  2.27892803
  3.02674714  4.20961929  7.26219249 -0.02434075  0.1667061   0.53181692
  0.62098198  1.29361387  1.59781595  2.14133393  2.62424952  3.03629857
  4.28798667 -0.02434075  0.1667061   0.53181692  0.62098198  1.29361387
  1.59781595  2.14133393  2.62424952  3.03629857  4.28798667 -3.98039603
 -0.17052421  0.07219759  0.14463507  0.22388542  0.47917987  0.65803346
  0.87382811  1.15778544  1.68440735  2.2812259   2.73194803  2.9803686
  4.61615918  6.89951678 -0.10066224  0.12192681  0.31113745  0.5565086
  0.88082277  1.40889125  1.98063607  2.18810645  2.69353457  4.13427833
 -0.10066224  0.12192681  0.31113745  0.5565086   0.88082277  1.40889125
  1.98063607  2.18810645  2.69353457  4.13427833  0.30177129  0.77025778
  1.38412559  1.9035761   2.43608979  4.09274     0.30216951  0.77043687
  1.38382614  1.90297543  2.43535406  4.09220173  0.89998289  2.19682951
  2.4766643   0.89998289  2.19682951  2.4766643   0.40084972  1.05237292
  1.44778472  2.43115463  2.66145426  4.13960334  0.40090428  1.05192317
  1.44795269  2.43132212  2.66056085  4.14008791  0.8024662   1.92814378
  2.42340789  0.8024662   1.92814378  2.42340789  2.03969438  2.03943986
  2.08372304  2.08371788]
nelec by numeric integration = [4.0000001 4.0000001]
    CPU time for vxc      0.94 sec, wall time      0.94 sec
    CPU time for df-vj      0.10 sec, wall time      0.10 sec
E1 = -45.05126274774608  Ecoul = 17.81934172343284  Exc = -5.532008291540952
cycle= 3 E= -29.3131528965557  delta_E= -5.59e-06  |g|= 0.00245  |ddm|= 0.02
    CPU time for cycle= 3      1.06 sec, wall time      1.06 sec
HOMO (A1u) = -0.17037046739266  LUMO (E1uy) = -0.100200654969748
double occ irrep_nelec = [2, 0, 0, 2, 0, 0, 0, 0, 0, 0, 0, 0, 0, 0, 0, 0, 0, 0]
single occ irrep_nelec = [0, 0, 0, 0, 0, 0, 0, 0, 0, 0, 0, 0, 0, 0, 0, 0, 0, 0]
  Roothaan mo_energy =
[-3.97959705 -0.27540803 -0.09902867  0.08765625  0.12285289  0.44478938
  0.5892145   0.62608706  1.08240502  1.6207343   2.07943222  2.27946924
  3.02736032  4.21057315  7.2630445  -0.02408442  0.16661506  0.53201707
  0.62132979  1.29406786  1.59820897  2.14196946  2.62500776  3.0366825
  4.28870928 -0.02408442  0.16661506  0.53201707  0.62132979  1.29406786
  1.59820897  2.14196946  2.62500776  3.0366825   4.28870928 -3.97955284
 -0.17037047  0.07198322  0.14467083  0.22369835  0.47894176  0.65832958
  0.87397821  1.15802277  1.68475255  2.28182382  2.7325884   2.98100831
  4.61717764  6.90044574 -0.10020065  0.12208871  0.3114765   0.55691506
  0.88126906  1.40938939  1.98129924  2.18879533  2.69400123  4.13498545
 -0.10020065  0.12208871  0.3114765   0.55691506  0.88126906  1.40938939
  1.98129924  2.18879533  2.69400123  4.13498545  0.3022115   0.77063367
  1.38464068  1.90410881  2.4365771   4.0933755   0.30259396  0.7708145
  1.38435825  1.90352079  2.43586505  4.09283838  0.90034781  2.19738128
  2.4771734   0.90034781  2.19738128  2.4771734   0.40113875  1.0527353
  1.44826263  2.43183942  2.66184029  4.14023459  0.40119357  1.05231852
  1.44841996  2.43198392  2.66096395  4.14071993  0.8028939   1.92861723
  2.42399395  0.8028939   1.92861723  2.42399395  2.04024308  2.03998951
  2.08426489  2.08426359]
nelec by numeric integration = [4.0000001 4.0000001]
    CPU time for vxc      0.79 sec, wall time      0.79 sec
    CPU time for df-vj      0.09 sec, wall time      0.09 sec
E1 = -45.046800878827405  Ecoul = 17.814272634380746  Exc = -5.531406097979961
cycle= 4 E= -29.3131579231281  delta_E= -5.03e-06  |g|= 0.000227  |ddm|= 0.00704
    CPU time for cycle= 4      0.90 sec, wall time      0.90 sec
HOMO (A1u) = -0.17030443226449  LUMO (E1ux) = -0.100133515997014
double occ irrep_nelec = [2, 0, 0, 2, 0, 0, 0, 0, 0, 0, 0, 0, 0, 0, 0, 0, 0, 0]
single occ irrep_nelec = [0, 0, 0, 0, 0, 0, 0, 0, 0, 0, 0, 0, 0, 0, 0, 0, 0, 0]
  Roothaan mo_energy =
[-3.97932277 -0.27533398 -0.09896877  0.08770986  0.12264687  0.44480314
  0.58923353  0.62617589  1.08251155  1.62084091  2.07953801  2.27953704
  3.02742765  4.21054162  7.26329295 -0.02402453  0.16654898  0.53206808
  0.6213826   1.29413231  1.59828463  2.14208982  2.62509803  3.03676714
  4.28886859 -0.02402453  0.16654898  0.53206808  0.6213826   1.29413231
  1.59828463  2.14208982  2.62509803  3.03676714  4.28886859 -3.97927853
 -0.17030443  0.07184044  0.14469931  0.22355229  0.47887044  0.65839299
  0.87404375  1.15807008  1.68486289  2.28191193  2.73260841  2.98114323
  4.61715517  6.90069327 -0.10013352  0.12209715  0.31154572  0.55696633
  0.881361    1.40945116  1.98140027  2.18891323  2.69407798  4.13514481
 -0.10013352  0.12209715  0.31154572  0.55696633  0.881361    1.40945116
  1.98140027  2.18891323  2.69407798  4.13514481  0.3022864   0.77071911
  1.38470477  1.9041832   2.43660309  4.09335338  0.30266711  0.77089897
  1.3844206   1.90359614  2.43589336  4.09282557  0.9004409   2.19744366
  2.47720139  0.9004409   2.19744366  2.47720139  0.40121462  1.05282718
  1.44833396  2.43188653  2.66190278  4.14022414  0.40126984  1.05241127
  1.44849332  2.43203034  2.66102111  4.14070011  0.80298438  1.92868882
  2.42400779  0.80298438  1.92868882  2.42400779  2.04028083  2.04002588
  2.08430055  2.08430042]
nelec by numeric integration = [4.0000001 4.0000001]
    CPU time for vxc      0.81 sec, wall time      0.81 sec
    CPU time for df-vj      0.09 sec, wall time      0.09 sec
E1 = -45.046452468484134  Ecoul = 17.813832005586903  Exc = -5.531313914253314
cycle= 5 E= -29.3131579578521  delta_E= -3.47e-08  |g|= 5.08e-05  |ddm|= 0.0034
    CPU time for cycle= 5      0.92 sec, wall time      0.92 sec
HOMO (A1u) = -0.17032283982926  LUMO (E1ux) = -0.100149199276891
double occ irrep_nelec = [2, 0, 0, 2, 0, 0, 0, 0, 0, 0, 0, 0, 0, 0, 0, 0, 0, 0]
single occ irrep_nelec = [0, 0, 0, 0, 0, 0, 0, 0, 0, 0, 0, 0, 0, 0, 0, 0, 0, 0]
  Roothaan mo_energy =
[-3.97936953 -0.27535285 -0.09898961  0.08769997  0.12254946  0.44477443
  0.58919778  0.62615994  1.08249295  1.62082938  2.07951313  2.27951712
  3.02741556  4.21052629  7.26325334 -0.02404226  0.1665015   0.53204792
  0.62136315  1.29411974  1.59827392  2.14206085  2.62507958  3.03675509
  4.28884246 -0.02404226  0.1665015   0.53204792  0.62136315  1.29411974
  1.59827392  2.14206085  2.62507958  3.03675509  4.28884246 -3.9793253
 -0.17032284  0.07175818  0.14466852  0.22346815  0.47879959  0.6583769
  0.87402514  1.15803667  1.68484395  2.2819009   2.73259449  2.98111637
  4.61713661  6.90065132 -0.1001492   0.12207833  0.31153264  0.55694712
  0.88134964  1.40943682  1.9813802   2.18888809  2.69406571  4.13511874
 -0.1001492   0.12207833  0.31153264  0.55694712  0.88134964  1.40943682
  1.9813802   2.18888809  2.69406571  4.13511874  0.30227533  0.77070706
  1.38468984  1.90416935  2.4365894   4.09333116  0.30265589  0.77088683
  1.38440577  1.90358244  2.4358795   4.09280315  0.90043357  2.19743172
  2.47718834  0.90043357  2.19743172  2.47718834  0.40120454  1.05281825
  1.44832004  2.43187112  2.66189266  4.14020193  0.40125975  1.05240191
  1.44847932  2.43201529  2.66101075  4.14067812  0.80297632  1.92867441
  2.42399507  0.80297632  1.92867441  2.42399507  2.04027213  2.04001747
  2.08429214  2.08429223]
nelec by numeric integration = [4.0000001 4.0000001]
    CPU time for vxc      0.47 sec, wall time      0.47 sec
    CPU time for df-vj      0.06 sec, wall time      0.06 sec
E1 = -45.04647877311816  Ecoul = 17.81386785758217  Exc = -5.531323464053649
cycle= 6 E= -29.3131579602912  delta_E= -2.44e-09  |g|= 8.14e-06  |ddm|= 0.00114
    CPU time for cycle= 6      0.53 sec, wall time      0.53 sec
HOMO (A1u) = -0.170323720126586  LUMO (E1ux) = -0.100149822424754
double occ irrep_nelec = [2, 0, 0, 2, 0, 0, 0, 0, 0, 0, 0, 0, 0, 0, 0, 0, 0, 0]
single occ irrep_nelec = [0, 0, 0, 0, 0, 0, 0, 0, 0, 0, 0, 0, 0, 0, 0, 0, 0, 0]
  Roothaan mo_energy =
[-3.97936813 -0.27535371 -0.09899086  0.0877004   0.12253271  0.44477082
  0.5891946   0.62615946  1.08249272  1.62082921  2.07951262  2.27951669
  3.0274144   4.21052579  7.26325452 -0.02404301  0.16649653  0.53204726
  0.62136211  1.29411975  1.59827413  2.14206088  2.62507926  3.03675556
  4.2888423  -0.02404301  0.16649653  0.53204726  0.62136211  1.29411975
  1.59827413  2.14206088  2.62507926  3.03675556  4.2888423  -3.9793239
 -0.17032372  0.07174422  0.14466576  0.22345441  0.47878906  0.65837771
  0.8740235   1.15803342  1.68484384  2.28190061  2.73259337  2.98111569
  4.61713618  6.90065248 -0.10014982  0.12207762  0.31153249  0.55694689
  0.88134979  1.4094364   1.98138003  2.18888831  2.69406523  4.13511882
 -0.10014982  0.12207762  0.31153249  0.55694689  0.88134979  1.4094364
  1.98138003  2.18888831  2.69406523  4.13511882  0.30227521  0.77070722
  1.38468971  1.90416901  2.43658893  4.09333104  0.30265584  0.77088701
  1.38440559  1.90358209  2.43587906  4.09280301  0.90043446  2.19743147
  2.47718858  0.90043446  2.19743147  2.47718858  0.40120487  1.05281871
  1.44832001  2.43187061  2.66189244  4.14020182  0.40126007  1.05240225
  1.44847933  2.43201475  2.6610105   4.14067803  0.80297697  1.92867406
  2.42399514  0.80297697  1.92867406  2.42399514  2.04027251  2.04001785
  2.08429256  2.08429267]
nelec by numeric integration = [4.0000001 4.0000001]
    CPU time for vxc      0.42 sec, wall time      0.42 sec
    CPU time for df-vj      0.05 sec, wall time      0.05 sec
E1 = -45.0464730467752  Ecoul = 17.813860529544318  Exc = -5.531321862450136
cycle= 7 E= -29.3131579603825  delta_E= -9.14e-11  |g|= 1.32e-06  |ddm|= 0.000266
    CPU time for cycle= 7      0.48 sec, wall time      0.48 sec
HOMO (A1u) = -0.170323967657272  LUMO (E1uy) = -0.100150021756303
double occ irrep_nelec = [2, 0, 0, 2, 0, 0, 0, 0, 0, 0, 0, 0, 0, 0, 0, 0, 0, 0]
single occ irrep_nelec = [0, 0, 0, 0, 0, 0, 0, 0, 0, 0, 0, 0, 0, 0, 0, 0, 0, 0]
  Roothaan mo_energy =
[-3.97936871 -0.27535397 -0.09899117  0.08770047  0.12253014  0.44477017
  0.58919401  0.62615922  1.08249248  1.62082903  2.07951229  2.27951643
  3.02741411  4.2105256   7.26325404 -0.02404321  0.16649583  0.53204707
  0.6213618   1.29411962  1.59827408  2.1420605   2.62507903  3.03675547
  4.28884195 -0.02404321  0.16649583  0.53204707  0.6213618   1.29411962
  1.59827408  2.1420605   2.62507903  3.03675547  4.28884195 -3.97932448
 -0.17032397  0.07174202  0.14466526  0.22345227  0.47878732  0.65837777
  0.87402312  1.15803278  1.68484361  2.2819004   2.73259315  2.98111531
  4.61713598  6.90065196 -0.10015002  0.12207757  0.31153238  0.55694675
  0.88134967  1.40943626  1.9813798   2.18888798  2.69406499  4.13511846
 -0.10015002  0.12207757  0.31153238  0.55694675  0.88134967  1.40943626
  1.9813798   2.18888798  2.69406499  4.13511846  0.30227507  0.77070713
  1.38468953  1.90416883  2.4365888   4.09333074  0.3026557   0.77088693
  1.3844054   1.9035819   2.43587891  4.09280269  0.90043444  2.19743126
  2.47718841  0.90043444  2.19743126  2.47718841  0.40120481  1.05281863
  1.44831983  2.43187039  2.6618923   4.1402015   0.40126001  1.05240213
  1.44847916  2.43201454  2.66101035  4.14067773  0.80297691  1.92867385
  2.42399496  0.80297691  1.92867385  2.42399496  2.04027235  2.0400177
  2.08429241  2.08429252]
nelec by numeric integration = [4.0000001 4.0000001]
    CPU time for vxc      0.39 sec, wall time      0.39 sec
    CPU time for df-vj      0.05 sec, wall time      0.05 sec
E1 = -45.04647295729095  Ecoul = 17.81386046825252  Exc = -5.531321890645188
Extra cycle  E= -29.3131579603851  delta_E= -2.6e-12  |g|= 3.34e-07  |ddm|= 4.3e-05
    CPU time for scf_cycle      8.28 sec, wall time      8.40 sec
    CPU time for SCF      8.28 sec, wall time      8.40 sec
converged SCF energy = -29.3131579603851
Using Python 3.x
Wavefunction successfully saved to QMCPACK HDF5 Format
Use: "convert4qmc -pyscf  scf.h5" to generate QMCPACK input files
