 CRYSTAL
 PRIMVEC
     1.96350000    1.96350000   -0.00000000
     0.00000000    1.96350000    1.96350000
     1.96350000    0.00000000    1.96350000
 PRIMCOORD
   2 1
     6   0.00000000    0.00000000    0.00000000
     6   0.98175000    0.98175000    0.98175000
