
     Program PWSCF v.6.3MaX starts on 27Sep2021 at 13: 8:29 

     This program is part of the open-source Quantum ESPRESSO suite
     for quantum simulation of materials; please cite
         "P. Giannozzi et al., J. Phys.:Condens. Matter 21 395502 (2009);
         "P. Giannozzi et al., J. Phys.:Condens. Matter 29 465901 (2017);
          URL http://www.quantum-espresso.org", 
     in publications or presentations arising from this work. More details at
     http://www.quantum-espresso.org/quote

     Parallel version (MPI), running on    12 processors

     MPI processes distributed on     1 nodes
     R & G space division:  proc/nbgrp/npool/nimage =      12
     Reading input from scf.in

     Current dimensions of program PWSCF are:
     Max number of different atomic species (ntypx) = 10
     Max number of k-points (npk) =  40000
     Max angular momentum in pseudopotentials (lmaxx) =  3

     IMPORTANT: XC functional enforced from input :
     Exchange-correlation      = PBE ( 1  4  3  4 0 0)
     Any further DFT definition will be discarded
     Please, verify this is what you really want


     Subspace diagonalization in iterative solution of the eigenvalue problem:
     a serial algorithm will be used


     Parallelization info
     --------------------
     sticks:   dense  smooth     PW     G-vecs:    dense   smooth      PW
     Min         126     126     36                 3264     3264     496
     Max         127     127     37                 3267     3267     499
     Sum        1519    1519    433                39189    39189    5961



     bravais-lattice index     =            0
     lattice parameter (alat)  =       5.2474  a.u.
     unit-cell volume          =     102.1690 (a.u.)^3
     number of atoms/cell      =            2
     number of atomic types    =            1
     number of electrons       =         8.00
     number of Kohn-Sham states=            4
     kinetic-energy cutoff     =     200.0000  Ry
     charge density cutoff     =     800.0000  Ry
     convergence threshold     =      1.0E-08
     mixing beta               =       0.7000
     number of iterations used =            8  plain     mixing
     Exchange-correlation      = PBE ( 1  4  3  4 0 0)

     celldm(1)=   5.247407  celldm(2)=   0.000000  celldm(3)=   0.000000
     celldm(4)=   0.000000  celldm(5)=   0.000000  celldm(6)=   0.000000

     crystal axes: (cart. coord. in units of alat)
               a(1) = (   0.707107   0.707107  -0.000000 )  
               a(2) = (   0.000000   0.707107   0.707107 )  
               a(3) = (   0.707107   0.000000   0.707107 )  

     reciprocal axes: (cart. coord. in units 2 pi/alat)
               b(1) = (  0.707107  0.707107 -0.707107 )  
               b(2) = ( -0.707107  0.707107  0.707107 )  
               b(3) = (  0.707107 -0.707107  0.707107 )  


     PseudoPot. # 1 for C  read from file:
     ./C.ccECP.upf
     MD5 check sum: c19abb4557c739f7d8de6f72ec65f7b0
     Pseudo is Norm-conserving, Zval =  4.0
     Generated by new atomic code, or converted to UPF format
     Using radial grid of 1122 points,  1 beta functions with: 
                l(1) =   0

     atomic species   valence    mass     pseudopotential
        C              4.00    12.01100     C ( 1.00)

     48 Sym. Ops., with inversion, found (24 have fractional translation)



   Cartesian axes

     site n.     atom                  positions (alat units)
         1           C   tau(   1) = (   0.0000000   0.0000000   0.0000000  )
         2           C   tau(   2) = (   0.3535534   0.3535534   0.3535534  )

     number of k points=     8
                       cart. coord. in units 2pi/alat
        k(    1) = (   0.0000000   0.0000000   0.0000000), wk =   0.0312500
        k(    2) = (   0.1767767  -0.1767767   0.1767767), wk =   0.2500000
        k(    3) = (  -0.3535534   0.3535534  -0.3535534), wk =   0.1250000
        k(    4) = (   0.0000000   0.0000000   0.3535534), wk =   0.1875000
        k(    5) = (  -0.5303301   0.5303301  -0.1767767), wk =   0.7500000
        k(    6) = (  -0.3535534   0.3535534   0.0000000), wk =   0.3750000
        k(    7) = (   0.0000000   0.0000000  -0.7071068), wk =   0.0937500
        k(    8) = (   0.3535534   0.0000000  -0.7071068), wk =   0.1875000

     Dense  grid:    39189 G-vectors     FFT dimensions: (  48,  48,  48)

     Estimated max dynamical RAM per process >       2.45 MB

     Estimated total dynamical RAM >      29.45 MB

     Initial potential from superposition of free atoms

     starting charge    6.00000, renormalised to    8.00000
     Starting wfcs are    8 randomized atomic wfcs

     total cpu time spent up to now is        0.1 secs

     Self-consistent Calculation

     iteration #  1     ecut=   200.00 Ry     beta= 0.70
     Davidson diagonalization with overlap
     ethr =  1.00E-02,  avg # of iterations =  1.8

     Threshold (ethr) on eigenvalues was too large:
     Diagonalizing with lowered threshold

     Davidson diagonalization with overlap
     ethr =  4.72E-04,  avg # of iterations =  1.5

     total cpu time spent up to now is        0.3 secs

     total energy              =     -22.65883646 Ry
     Harris-Foulkes estimate   =     -22.66006717 Ry
     estimated scf accuracy    <       0.03875391 Ry

     iteration #  2     ecut=   200.00 Ry     beta= 0.70
     Davidson diagonalization with overlap
     ethr =  4.84E-04,  avg # of iterations =  1.0

     total cpu time spent up to now is        0.3 secs

     total energy              =     -22.66075367 Ry
     Harris-Foulkes estimate   =     -22.66019533 Ry
     estimated scf accuracy    <       0.00230819 Ry

     iteration #  3     ecut=   200.00 Ry     beta= 0.70
     Davidson diagonalization with overlap
     ethr =  2.89E-05,  avg # of iterations =  2.0

     total cpu time spent up to now is        0.4 secs

     total energy              =     -22.66101280 Ry
     Harris-Foulkes estimate   =     -22.66100765 Ry
     estimated scf accuracy    <       0.00004879 Ry

     iteration #  4     ecut=   200.00 Ry     beta= 0.70
     Davidson diagonalization with overlap
     ethr =  6.10E-07,  avg # of iterations =  3.0

     total cpu time spent up to now is        0.5 secs

     total energy              =     -22.66103456 Ry
     Harris-Foulkes estimate   =     -22.66103501 Ry
     estimated scf accuracy    <       0.00000188 Ry

     iteration #  5     ecut=   200.00 Ry     beta= 0.70
     Davidson diagonalization with overlap
     ethr =  2.35E-08,  avg # of iterations =  2.9

     total cpu time spent up to now is        0.5 secs

     total energy              =     -22.66103527 Ry
     Harris-Foulkes estimate   =     -22.66103535 Ry
     estimated scf accuracy    <       0.00000018 Ry

     iteration #  6     ecut=   200.00 Ry     beta= 0.70
     Davidson diagonalization with overlap
     ethr =  2.31E-09,  avg # of iterations =  2.1

     total cpu time spent up to now is        0.6 secs

     End of self-consistent calculation

          k = 0.0000 0.0000 0.0000 (  4909 PWs)   bands (ev):

    -9.3602   8.7847   8.7847   8.7847

          k = 0.1768-0.1768 0.1768 (  4870 PWs)   bands (ev):

    -7.9655   3.3270   7.4698   7.4698

          k =-0.3536 0.3536-0.3536 (  4910 PWs)   bands (ev):

    -5.0254  -1.8732   6.6387   6.6387

          k = 0.0000 0.0000 0.3536 (  4865 PWs)   bands (ev):

    -7.4942   4.4650   5.7053   5.7053

          k =-0.5303 0.5303-0.1768 (  4882 PWs)   bands (ev):

    -4.5736  -0.3028   3.4328   5.1011

          k =-0.3536 0.3536 0.0000 (  4874 PWs)   bands (ev):

    -5.7728   1.2352   2.9644   6.5007

          k = 0.0000 0.0000-0.7071 (  4880 PWs)   bands (ev):

    -2.3031  -2.3031   4.0128   4.0128

          k = 0.3536 0.0000-0.7071 (  4888 PWs)   bands (ev):

    -1.8817  -1.8817   2.6235   2.6235

     highest occupied level (ev):     8.7847

!    total energy              =     -22.66103531 Ry
     Harris-Foulkes estimate   =     -22.66103531 Ry
     estimated scf accuracy    <          2.8E-09 Ry

     The total energy is the sum of the following terms:

     one-electron contribution =       5.00629859 Ry
     hartree contribution      =       2.23670443 Ry
     xc contribution           =      -6.67555243 Ry
     ewald contribution        =     -23.22848590 Ry

     convergence has been achieved in   6 iterations

     Writing output data file pwscf.save/

     init_run     :      0.10s CPU      0.10s WALL (       1 calls)
     electrons    :      0.40s CPU      0.47s WALL (       1 calls)

     Called by init_run:
     wfcinit      :      0.03s CPU      0.03s WALL (       1 calls)
     potinit      :      0.02s CPU      0.02s WALL (       1 calls)
     hinit0       :      0.02s CPU      0.03s WALL (       1 calls)

     Called by electrons:
     c_bands      :      0.27s CPU      0.31s WALL (       7 calls)
     sum_band     :      0.07s CPU      0.07s WALL (       7 calls)
     v_of_rho     :      0.06s CPU      0.07s WALL (       7 calls)
     mix_rho      :      0.01s CPU      0.01s WALL (       7 calls)

     Called by c_bands:
     init_us_2    :      0.00s CPU      0.00s WALL (     120 calls)
     cegterg      :      0.26s CPU      0.30s WALL (      56 calls)

     Called by sum_band:

     Called by *egterg:
     h_psi        :      0.23s CPU      0.26s WALL (     178 calls)
     g_psi        :      0.00s CPU      0.00s WALL (     114 calls)
     cdiaghg      :      0.02s CPU      0.02s WALL (     162 calls)

     Called by h_psi:
     h_psi:pot    :      0.23s CPU      0.26s WALL (     178 calls)
     h_psi:calbec :      0.02s CPU      0.02s WALL (     178 calls)
     vloc_psi     :      0.21s CPU      0.24s WALL (     178 calls)
     add_vuspsi   :      0.00s CPU      0.00s WALL (     178 calls)

     General routines
     calbec       :      0.02s CPU      0.02s WALL (     178 calls)
     fft          :      0.03s CPU      0.03s WALL (      71 calls)
     ffts         :      0.00s CPU      0.00s WALL (       7 calls)
     fftw         :      0.22s CPU      0.26s WALL (    1538 calls)

     Parallel routines
     fft_scatt_xy :      0.03s CPU      0.04s WALL (    1616 calls)
     fft_scatt_yz :      0.11s CPU      0.13s WALL (    1616 calls)

     PWSCF        :     0.55s CPU         0.65s WALL


   This run was terminated on:  13: 8:29  27Sep2021            

=------------------------------------------------------------------------------=
   JOB DONE.
=------------------------------------------------------------------------------=
