
     Program PWSCF v.6.3MaX starts on 27Sep2021 at 13: 8:32 

     This program is part of the open-source Quantum ESPRESSO suite
     for quantum simulation of materials; please cite
         "P. Giannozzi et al., J. Phys.:Condens. Matter 21 395502 (2009);
         "P. Giannozzi et al., J. Phys.:Condens. Matter 29 465901 (2017);
          URL http://www.quantum-espresso.org", 
     in publications or presentations arising from this work. More details at
     http://www.quantum-espresso.org/quote

     Parallel version (MPI), running on    12 processors

     MPI processes distributed on     1 nodes
     R & G space division:  proc/nbgrp/npool/nimage =      12
     Reading input from scf.in

     Current dimensions of program PWSCF are:
     Max number of different atomic species (ntypx) = 10
     Max number of k-points (npk) =  40000
     Max angular momentum in pseudopotentials (lmaxx) =  3

     IMPORTANT: XC functional enforced from input :
     Exchange-correlation      = PBE ( 1  4  3  4 0 0)
     Any further DFT definition will be discarded
     Please, verify this is what you really want


     Subspace diagonalization in iterative solution of the eigenvalue problem:
     a serial algorithm will be used


     Parallelization info
     --------------------
     sticks:   dense  smooth     PW     G-vecs:    dense   smooth      PW
     Min         138     138     39                 3711     3711     561
     Max         139     139     40                 3713     3713     562
     Sum        1663    1663    475                44543    44543    6735



     bravais-lattice index     =            0
     lattice parameter (alat)  =       5.4859  a.u.
     unit-cell volume          =     116.7441 (a.u.)^3
     number of atoms/cell      =            2
     number of atomic types    =            1
     number of electrons       =         8.00
     number of Kohn-Sham states=            4
     kinetic-energy cutoff     =     200.0000  Ry
     charge density cutoff     =     800.0000  Ry
     convergence threshold     =      1.0E-08
     mixing beta               =       0.7000
     number of iterations used =            8  plain     mixing
     Exchange-correlation      = PBE ( 1  4  3  4 0 0)

     celldm(1)=   5.485926  celldm(2)=   0.000000  celldm(3)=   0.000000
     celldm(4)=   0.000000  celldm(5)=   0.000000  celldm(6)=   0.000000

     crystal axes: (cart. coord. in units of alat)
               a(1) = (   0.707107   0.707107  -0.000000 )  
               a(2) = (   0.000000   0.707107   0.707107 )  
               a(3) = (   0.707107   0.000000   0.707107 )  

     reciprocal axes: (cart. coord. in units 2 pi/alat)
               b(1) = (  0.707107  0.707107 -0.707107 )  
               b(2) = ( -0.707107  0.707107  0.707107 )  
               b(3) = (  0.707107 -0.707107  0.707107 )  


     PseudoPot. # 1 for C  read from file:
     ./C.ccECP.upf
     MD5 check sum: c19abb4557c739f7d8de6f72ec65f7b0
     Pseudo is Norm-conserving, Zval =  4.0
     Generated by new atomic code, or converted to UPF format
     Using radial grid of 1122 points,  1 beta functions with: 
                l(1) =   0

     atomic species   valence    mass     pseudopotential
        C              4.00    12.01100     C ( 1.00)

     24 Sym. Ops. (no inversion) found
          (note: 24 additional sym.ops. were found but ignored
           their fractional translations are incommensurate with FFT grid)


   Cartesian axes

     site n.     atom                  positions (alat units)
         1           C   tau(   1) = (   0.0000000   0.0000000   0.0000000  )
         2           C   tau(   2) = (   0.3535534   0.3535534   0.3535534  )

     number of k points=     8
                       cart. coord. in units 2pi/alat
        k(    1) = (   0.0000000   0.0000000   0.0000000), wk =   0.0312500
        k(    2) = (   0.1767767  -0.1767767   0.1767767), wk =   0.2500000
        k(    3) = (  -0.3535534   0.3535534  -0.3535534), wk =   0.1250000
        k(    4) = (   0.0000000   0.0000000   0.3535534), wk =   0.1875000
        k(    5) = (  -0.5303301   0.5303301  -0.1767767), wk =   0.7500000
        k(    6) = (  -0.3535534   0.3535534   0.0000000), wk =   0.3750000
        k(    7) = (   0.0000000   0.0000000  -0.7071068), wk =   0.0937500
        k(    8) = (   0.3535534   0.0000000  -0.7071068), wk =   0.1875000

     Dense  grid:    44543 G-vectors     FFT dimensions: (  50,  50,  50)

     Estimated max dynamical RAM per process >       2.93 MB

     Estimated total dynamical RAM >      35.14 MB

     Initial potential from superposition of free atoms

     starting charge    6.00000, renormalised to    8.00000
     Starting wfcs are    8 randomized atomic wfcs

     total cpu time spent up to now is        0.2 secs

     Self-consistent Calculation

     iteration #  1     ecut=   200.00 Ry     beta= 0.70
     Davidson diagonalization with overlap
     ethr =  1.00E-02,  avg # of iterations =  1.9

     Threshold (ethr) on eigenvalues was too large:
     Diagonalizing with lowered threshold

     Davidson diagonalization with overlap
     ethr =  7.83E-04,  avg # of iterations =  1.0

     total cpu time spent up to now is        0.3 secs

     total energy              =     -22.58032810 Ry
     Harris-Foulkes estimate   =     -22.59234892 Ry
     estimated scf accuracy    <       0.06328297 Ry

     iteration #  2     ecut=   200.00 Ry     beta= 0.70
     Davidson diagonalization with overlap
     ethr =  7.91E-04,  avg # of iterations =  1.0

     total cpu time spent up to now is        0.4 secs

     total energy              =     -22.58379589 Ry
     Harris-Foulkes estimate   =     -22.58335715 Ry
     estimated scf accuracy    <       0.00280765 Ry

     iteration #  3     ecut=   200.00 Ry     beta= 0.70
     Davidson diagonalization with overlap
     ethr =  3.51E-05,  avg # of iterations =  2.0

     total cpu time spent up to now is        0.5 secs

     total energy              =     -22.58422331 Ry
     Harris-Foulkes estimate   =     -22.58419969 Ry
     estimated scf accuracy    <       0.00006654 Ry

     iteration #  4     ecut=   200.00 Ry     beta= 0.70
     Davidson diagonalization with overlap
     ethr =  8.32E-07,  avg # of iterations =  2.6

     total cpu time spent up to now is        0.6 secs

     total energy              =     -22.58424284 Ry
     Harris-Foulkes estimate   =     -22.58424240 Ry
     estimated scf accuracy    <       0.00000155 Ry

     iteration #  5     ecut=   200.00 Ry     beta= 0.70
     Davidson diagonalization with overlap
     ethr =  1.93E-08,  avg # of iterations =  3.2

     total cpu time spent up to now is        0.7 secs

     total energy              =     -22.58424386 Ry
     Harris-Foulkes estimate   =     -22.58424389 Ry
     estimated scf accuracy    <       0.00000008 Ry

     iteration #  6     ecut=   200.00 Ry     beta= 0.70
     Davidson diagonalization with overlap
     ethr =  1.00E-09,  avg # of iterations =  2.5

     total cpu time spent up to now is        0.8 secs

     End of self-consistent calculation

          k = 0.0000 0.0000 0.0000 (  5601 PWs)   bands (ev):

    -9.7769   6.9834   6.9834   6.9834

          k = 0.1768-0.1768 0.1768 (  5591 PWs)   bands (ev):

    -8.5260   1.9292   5.8389   5.8389

          k =-0.3536 0.3536-0.3536 (  5600 PWs)   bands (ev):

    -6.0094  -2.6501   5.1004   5.1004

          k = 0.0000 0.0000 0.3536 (  5601 PWs)   bands (ev):

    -8.0983   2.6843   4.3137   4.3137

          k =-0.5303 0.5303-0.1768 (  5580 PWs)   bands (ev):

    -5.5259  -1.4937   2.2307   3.7721

          k =-0.3536 0.3536 0.0000 (  5580 PWs)   bands (ev):

    -6.5784  -0.1553   1.8954   4.9885

          k = 0.0000 0.0000-0.7071 (  5514 PWs)   bands (ev):

    -3.4472  -3.4471   2.8170   2.8170

          k = 0.3536 0.0000-0.7071 (  5540 PWs)   bands (ev):

    -3.1412  -3.1411   1.6623   1.6623

     highest occupied level (ev):     6.9834

!    total energy              =     -22.58424388 Ry
     Harris-Foulkes estimate   =     -22.58424388 Ry
     estimated scf accuracy    <          8.8E-09 Ry

     The total energy is the sum of the following terms:

     one-electron contribution =       3.73067856 Ry
     hartree contribution      =       2.40460768 Ry
     xc contribution           =      -6.50097840 Ry
     ewald contribution        =     -22.21855171 Ry

     convergence has been achieved in   6 iterations

     Writing output data file pwscf.save/

     init_run     :      0.11s CPU      0.13s WALL (       1 calls)
     electrons    :      0.56s CPU      0.64s WALL (       1 calls)

     Called by init_run:
     wfcinit      :      0.04s CPU      0.05s WALL (       1 calls)
     potinit      :      0.02s CPU      0.02s WALL (       1 calls)
     hinit0       :      0.02s CPU      0.03s WALL (       1 calls)

     Called by electrons:
     c_bands      :      0.39s CPU      0.45s WALL (       7 calls)
     sum_band     :      0.08s CPU      0.08s WALL (       7 calls)
     v_of_rho     :      0.07s CPU      0.09s WALL (       7 calls)
     mix_rho      :      0.01s CPU      0.02s WALL (       7 calls)

     Called by c_bands:
     init_us_2    :      0.00s CPU      0.00s WALL (     120 calls)
     cegterg      :      0.38s CPU      0.44s WALL (      56 calls)

     Called by sum_band:

     Called by *egterg:
     h_psi        :      0.36s CPU      0.41s WALL (     178 calls)
     g_psi        :      0.00s CPU      0.00s WALL (     114 calls)
     cdiaghg      :      0.02s CPU      0.02s WALL (     162 calls)

     Called by h_psi:
     h_psi:pot    :      0.36s CPU      0.41s WALL (     178 calls)
     h_psi:calbec :      0.01s CPU      0.02s WALL (     178 calls)
     vloc_psi     :      0.34s CPU      0.39s WALL (     178 calls)
     add_vuspsi   :      0.00s CPU      0.00s WALL (     178 calls)

     General routines
     calbec       :      0.01s CPU      0.02s WALL (     178 calls)
     fft          :      0.03s CPU      0.04s WALL (      71 calls)
     ffts         :      0.00s CPU      0.00s WALL (       7 calls)
     fftw         :      0.37s CPU      0.41s WALL (    1548 calls)

     Parallel routines
     fft_scatt_xy :      0.05s CPU      0.05s WALL (    1626 calls)
     fft_scatt_yz :      0.17s CPU      0.21s WALL (    1626 calls)

     PWSCF        :     0.71s CPU         0.84s WALL


   This run was terminated on:  13: 8:33  27Sep2021            

=------------------------------------------------------------------------------=
   JOB DONE.
=------------------------------------------------------------------------------=
