 CRYSTAL
 PRIMVEC
     2.05275000    2.05275000   -0.00000000
     0.00000000    2.05275000    2.05275000
     2.05275000    0.00000000    2.05275000
 PRIMCOORD
   2 1
     6   0.00000000    0.00000000    0.00000000
     6   1.02637500    1.02637500    1.02637500
