#INFO: **** input file is /home/abenali/Work/WorkShop/qmcpack_workshop_2021/qmc_workshop_2021/week4_molecules/03_qmc_ccECP/runs/O2/Dist_3.0/SCF/scf.py ****

#! /usr/bin/env python3

import numpy as np
from numpy import array

### generated pyscfimport text ###
from pyscf import df, scf, dft
### end generated pyscfimport text ###





### generated system text ###
from pyscf import gto as gto_loc
mol = gto_loc.Mole()
mol.verbose  = 5
mol.atom     = '''
               O    0.00000000   0.00000000   0.00000000
               O    0.00000000   0.00000000   3.00000000
               '''
mol.basis    = 'ccecp-ccpvtz'
mol.unit     = 'A'
mol.ecp      = 'ccecp'
mol.charge   = 0
mol.spin     = 2
mol.symmetry = False
mol.build()
### end generated system text ###




### generated calculation text ###
mf = scf.ROKS(mol).density_fit()
mf.max_cycle=200
mf.level_shift=0.0
mf.xc          = 'SCAN'
mf.tol         = '1e-10'
e_scf = mf.kernel()
### end generated calculation text ###



### generated conversion text ###
from PyscfToQmcpack import savetoqmcpack
savetoqmcpack(mol,mf,'scf')
### end generated conversion text ###

#INFO: ******************** input file end ********************


System: uname_result(system='Linux', node='abenali', release='5.11.0-38-generic', version='#42~20.04.1-Ubuntu SMP Tue Sep 28 20:41:07 UTC 2021', machine='x86_64', processor='x86_64')  Threads 1
Python 3.7.11 (default, Sep  9 2021, 02:06:38) 
[GCC 9.3.0]
numpy 1.20.3  scipy 1.6.2
Date: Mon Oct 25 21:21:03 2021
PySCF version 2.0.0a
PySCF path  /home/abenali/Work/src/pyscf
GIT HEAD (branch master) 3e8ba375fd4229f000289589fd02193633380853

[CONFIG] conf_file None
[INPUT] verbose = 5
[INPUT] max_memory = 4000 
[INPUT] num. atoms = 2
[INPUT] num. electrons = 12
[INPUT] charge = 0
[INPUT] spin (= nelec alpha-beta = 2S) = 2
[INPUT] symmetry False subgroup None
[INPUT] Mole.unit = A
[INPUT]  1 O      0.000000000000   0.000000000000   0.000000000000 AA    0.000000000000   0.000000000000   0.000000000000 Bohr
[INPUT]  2 O      0.000000000000   0.000000000000   3.000000000000 AA    0.000000000000   0.000000000000   5.669178373695 Bohr
[INPUT] ---------------- BASIS SET ---------------- 
[INPUT] l, kappa, [nprim/nctr], expnt,             c_1 c_2 ...
[INPUT] O
[INPUT] 0    0    [9    /1   ]  54.775216         -0.0012444
                                25.616801         0.010733
                                11.980245         0.0018889
                                6.992317          -0.1742537
                                2.620277          0.0017622
                                1.225429          0.3161846
                                0.577797          0.4512023
                                0.268022          0.3121534
                                0.125346          0.0511167
[INPUT] 0    0    [1    /1   ]  1.686633             1
[INPUT] 0    0    [1    /1   ]  0.237997             1
[INPUT] 1    0    [9    /1   ]  22.217266         0.0104866
                                10.74755          0.0366435
                                5.315785          0.0803674
                                2.660761          0.162701
                                1.331816          0.2377791
                                0.678626          0.2811422
                                0.333673          0.2643189
                                0.167017          0.1466014
                                0.083598          0.0458145
[INPUT] 1    0    [1    /1   ]  0.600621             1
[INPUT] 1    0    [1    /1   ]  0.184696             1
[INPUT] 2    0    [1    /1   ]  2.404278             1
[INPUT] 2    0    [1    /1   ]  0.66934              1
[INPUT] 3    0    [1    /1   ]  1.423104             1

nuclear repulsion = 6.35012653104
number of shells = 18
number of NR pGTOs = 122
number of NR cGTOs = 58
basis = ccecp-ccpvtz
ecp = ccecp
CPU time:         0.27


******** <class 'pyscf.df.df_jk.density_fit.<locals>.DFHF'> ********
method = DFHF-ROKS-ROHF-RHF
initial guess = minao
damping factor = 0
level_shift factor = 0.0
DIIS = <class 'pyscf.scf.diis.CDIIS'>
diis_start_cycle = 1
diis_space = 8
SCF conv_tol = 1e-09
SCF conv_tol_grad = None
SCF max_cycles = 200
direct_scf = True
direct_scf_tol = 1e-13
chkfile to save SCF result = /home/abenali/Work/WorkShop/qmcpack_workshop_2021/qmc_workshop_2021/week4_molecules/03_qmc_ccECP/runs/O2/Dist_3.0/SCF/tmppjbdaqd5
max_memory 4000 MB (current use 107 MB)
num. doubly occ = 5  num. singly occ = 2
XC library pyscf.dft.libxc version 5.1.5
    S. Lehtola, C. Steigemann, M. J. Oliveira, and M. A. Marques, SoftwareX 7, 1 (2018)
XC functionals = SCAN
    J. Sun, A. Ruzsinszky, and J. P. Perdew, Phys. Rev. Lett. 115, 036402 (2015)
    J. Sun, A. Ruzsinszky, and J. P. Perdew, Phys. Rev. Lett. 115, 036402 (2015)
radial grids: 
    Treutler-Ahlrichs [JCP 102, 346 (1995); DOI:10.1063/1.469408] (M4) radial grids
    
becke partition: Becke, JCP 88, 2547 (1988); DOI:10.1063/1.454033
pruning grids: <function nwchem_prune at 0x7f089e11bdd0>
grids dens level: 3
symmetrized grids: False
atomic radii adjust function: <function treutler_atomic_radii_adjust at 0x7f089e124290>
small_rho_cutoff = 1e-07
Set gradient conv threshold to 3.16228e-05
atom O rad-grids = 75, ang-grids = [ 50  50  50  50  50  50  50  50  50  50  50  50  50  50  50  50  50  50
  50  50  50  50  86  86  86  86  86  86  86  86  86 266 266 266 266 266
 266 266 302 302 302 302 302 302 302 302 302 302 302 302 302 302 302 302
 302 302 302 266 266 266 266 266 266 266 266 266 266 266 266 266 266 266
 266 266 266]
tot grids = 28524
Drop grids 1926
    CPU time for setting up grids      0.03 sec, wall time      0.03 sec
nelec by numeric integration = [6.00000019 6.00000019]
    CPU time for vxc      0.38 sec, wall time      0.38 sec
Even tempered Gaussians are generated as DF auxbasis for  O
  ETB auxbasis for O  [[0, [64.177152, 1]], [0, [32.088576, 1]], [0, [16.044288, 1]], [0, [8.022144, 1]], [0, [4.011072, 1]], [0, [2.005536, 1]], [0, [1.002768, 1]], [0, [0.501384, 1]], [0, [0.250692, 1]], [1, [52.41108427692326, 1]], [1, [26.20554213846163, 1]], [1, [13.102771069230815, 1]], [1, [6.551385534615408, 1]], [1, [3.275692767307704, 1]], [1, [1.637846383653852, 1]], [1, [0.818923191826926, 1]], [1, [0.409461595913463, 1]], [1, [0.2047307979567315, 1]], [2, [42.802176, 1]], [2, [21.401088, 1]], [2, [10.700544, 1]], [2, [5.350272, 1]], [2, [2.675136, 1]], [2, [1.337568, 1]], [2, [0.668784, 1]], [2, [0.334392, 1]], [2, [0.167196, 1]], [3, [7.569571782318998, 1]], [3, [3.784785891159499, 1]], [3, [1.8923929455797495, 1]], [3, [0.9461964727898747, 1]], [3, [0.47309823639493737, 1]], [4, [5.35472, 1]], [4, [2.67736, 1]], [4, [1.33868, 1]]]
num shells = 70, num cGTOs = 286
    CPU time for df-vj      0.05 sec, wall time      0.05 sec
E1 = -64.98321607722062  Ecoul = 33.48808937261017  Exc = -6.383714912460907
init E= -31.5287150860314
cond(S) = 80.00889156719278
    CPU time for initialize scf      0.50 sec, wall time      0.53 sec
  HOMO = -0.354782496461796  LUMO = -0.34544569553313
                  Roothaan           | alpha              | beta
  Highest 2-occ = -0.358936389914618 | -0.358936389914619 | -0.358936389914619
  Lowest 0-occ =   -0.34544569553313 | -0.345445695533131 | -0.345445695533131
  1-occ =         -0.354782496461797 | -0.354782496461797 | -0.354782496461797
  1-occ =         -0.354782496461796 | -0.354782496461795 | -0.354782496461795
  Roothaan mo_energy =
[-0.96617759 -0.9626045  -0.36775571 -0.35893639 -0.35893639 -0.3547825
 -0.3547825  -0.3454457   0.3986773   0.431004    0.431004    0.49905955
  0.49905955  0.54014329  0.76489661  0.90546564  1.46408516  1.46809719
  1.46809719  1.47019487  1.47024795  1.47047408  1.47052715  1.4733477
  1.4733477   1.50864061  2.84795711  2.84795711  2.89697214  2.91904319
  2.91904319  2.97721267  5.14758897  5.14758897  5.14762482  5.14762482
  5.14794683  5.14794714  5.14841717  5.14841717  5.14841863  5.14841863
  5.14861381  5.14861413  5.14913864  5.15026793  6.39171085  6.39477058
  6.39477058  6.39588484  6.39590591  6.3960602   6.39608128  6.39826612
  6.39826612  6.41974719 14.75859321 15.12283314]
nelec by numeric integration = [7.00000085 5.00000014]
    CPU time for vxc      0.28 sec, wall time      0.28 sec
    CPU time for df-vj      0.05 sec, wall time      0.05 sec
E1 = -65.21210497557745  Ecoul = 33.762179906169244  Exc = -6.5031158516162195
cycle= 1 E= -31.6029143899844  delta_E= -0.0742  |g|= 0.0796  |ddm|= 1.73
    CPU time for cycle= 1      0.33 sec, wall time      0.33 sec
  HOMO = -0.328384428339409  LUMO = -0.323917102773669
                  Roothaan           | alpha              | beta
  Highest 2-occ = -0.333142864968539 | -0.357732672365967 | -0.284982853767687
  Lowest 0-occ =  -0.323917102773669 | -0.333652069516806 |  -0.31418213603053
  1-occ =         -0.328384428339412 | -0.377901874480278 | -0.278130944611977
  1-occ =         -0.328384428339409 | -0.377901874480277 | -0.278130944611975
  Roothaan mo_energy =
[-0.94003959 -0.93603965 -0.3489699  -0.33314286 -0.33314286 -0.32838443
 -0.32838443 -0.3239171   0.39875792  0.4418229   0.4418229   0.51093389
  0.51093389  0.54716713  0.77817978  0.91924383  1.47336764  1.47373291
  1.47373291  1.47917969  1.47917969  1.48823967  1.48829308  1.48852438
  1.48857779  1.51778053  2.8735364   2.8735364   2.92628764  2.94484031
  2.94484031  3.00462693  5.1440357   5.1440357   5.14417679  5.14417679
  5.15782649  5.15871307  5.15871337  5.15920483  5.15941565  5.15941596
  5.16729205  5.16729205  5.16729205  5.16729205  6.41271388  6.41353413
  6.41353413  6.41705354  6.41705354  6.42564244  6.42581866  6.42646624
  6.42664247  6.4408453  14.79709449 15.16135391]
nelec by numeric integration = [7.00000108 5.00000029]
    CPU time for vxc      0.28 sec, wall time      0.28 sec
    CPU time for df-vj      0.05 sec, wall time      0.05 sec
E1 = -65.0383533419102  Ecoul = 33.53591924848284  Exc = -6.451830484279771
cycle= 2 E= -31.6041380466671  delta_E= -0.00122  |g|= 0.0421  |ddm|= 0.142
    CPU time for cycle= 2      0.33 sec, wall time      0.33 sec
  HOMO = -0.341575093732218  LUMO = -0.336269161611589
                  Roothaan           | alpha              | beta
  Highest 2-occ =  -0.34614986927376 | -0.373178910032626 | -0.301292278158963
  Lowest 0-occ =  -0.336269161611589 |   -0.3499236094741 | -0.330593416058705
  1-occ =         -0.341575093732219 | -0.396402933141166 |  -0.29467250005055
  1-occ =         -0.341575093732218 | -0.396402933141164 | -0.294672500050549
  Roothaan mo_energy =
[-0.95313848 -0.94921933 -0.36072419 -0.34614987 -0.34614987 -0.34157509
 -0.34157509 -0.33626916  0.39209253  0.43543726  0.43543726  0.50453295
  0.50453295  0.54089518  0.76937652  0.91090041  1.46558821  1.46558821
  1.46577217  1.47106112  1.47106112  1.48031225  1.4803685   1.48059715
  1.4806534   1.51021237  2.85918879  2.85918879  2.91279024  2.93045317
  2.93045317  2.99104062  5.13265242  5.13265242  5.13280091  5.13280091
  5.14713022  5.14797705  5.14797735  5.14852227  5.14866968  5.14866999
  5.1567675   5.1567675   5.1567675   5.1567675   6.39638305  6.39703064
  6.39703064  6.40055954  6.40055954  6.40907014  6.40924683  6.40990621
  6.41008292  6.42462103 14.7756507  15.13978646]
nelec by numeric integration = [7.00000113 5.00000032]
    CPU time for vxc      0.27 sec, wall time      0.27 sec
    CPU time for df-vj      0.05 sec, wall time      0.05 sec
E1 = -65.15814237245496  Ecoul = 33.690819334212065  Exc = -6.487246103768451
cycle= 3 E= -31.6044426109713  delta_E= -0.000305  |g|= 0.019  |ddm|= 0.0698
    CPU time for cycle= 3      0.32 sec, wall time      0.32 sec
  HOMO = -0.33732310509362  LUMO = -0.332085380493117
                  Roothaan           | alpha              | beta
  Highest 2-occ = -0.342327338265159 | -0.361973052544652 | -0.289581075860048
  Lowest 0-occ =  -0.332085380493117 | -0.338055969241197 | -0.318604616331046
  1-occ =         -0.337323105093621 | -0.384381944807427 | -0.282572980648705
  1-occ =          -0.33732310509362 | -0.384381944807426 | -0.282572980648705
  Roothaan mo_energy =
[-0.94908893 -0.94513787 -0.35679947 -0.34232734 -0.34232734 -0.33732311
 -0.33732311 -0.33208538  0.39406418  0.4372562   0.4372562   0.50608993
  0.50608993  0.54281061  0.7720214   0.91354394  1.46787422  1.46787422
  1.46814732  1.4733504   1.4733504   1.48266828  1.48272426  1.48295335
  1.48300934  1.51262217  2.86332155  2.86332155  2.91728235  2.93448824
  2.93448824  2.99550943  5.1356522   5.1356522   5.13580296  5.13580296
  5.1503384   5.15113796  5.15113829  5.15173176  5.15182763  5.15182797
  5.16003428  5.16003428  5.16003443  5.16003443  6.40138633  6.40195767
  6.40195767  6.40548568  6.40548568  6.41413438  6.41431102  6.41488583
  6.41506249  6.42962567 14.78225119 15.14641084]
nelec by numeric integration = [7.00000112 5.00000031]
    CPU time for vxc      0.27 sec, wall time      0.27 sec
    CPU time for df-vj      0.05 sec, wall time      0.05 sec
E1 = -65.12219478151614  Ecoul = 33.644191132127936  Exc = -6.476639174349282
cycle= 4 E= -31.6045162926975  delta_E= -7.37e-05  |g|= 0.00052  |ddm|= 0.0207
    CPU time for cycle= 4      0.32 sec, wall time      0.32 sec
  HOMO = -0.337202863526088  LUMO = -0.33194571400381
                  Roothaan           | alpha              | beta
  Highest 2-occ = -0.342247365283462 |   -0.3652981390777 | -0.293111652256051
  Lowest 0-occ =   -0.33194571400381 | -0.341573458541308 | -0.322173364188715
  1-occ =         -0.337202863526655 | -0.388019583053469 | -0.286227591219227
  1-occ =         -0.337202863526088 | -0.388019583053635 | -0.286227591219001
  Roothaan mo_energy =
[-0.94898052 -0.94502679 -0.35668048 -0.34224737 -0.34224737 -0.33720286
 -0.33720286 -0.33194571  0.39407327  0.4372953   0.4372953   0.50610787
  0.50610787  0.54283851  0.77206915  0.91362195  1.46789346  1.46789346
  1.4681946   1.47337135  1.47337135  1.48272114  1.48277675  1.48300803
  1.48306365  1.51267585  2.86337924  2.86337924  2.91741923  2.93453212
  2.93453212  2.99564258  5.13562235  5.13562235  5.1357789   5.1357789
  5.15039294  5.15116361  5.15120274  5.1517872   5.15185313  5.15189227
  5.16008309  5.16008309  5.16012145  5.16012145  6.40143567  6.40204903
  6.40204903  6.40557778  6.40557778  6.41424205  6.41442481  6.41498208
  6.41516486  6.42967952 14.78241    15.14657161]
nelec by numeric integration = [7.00000112 5.00000031]
    CPU time for vxc      0.27 sec, wall time      0.27 sec
    CPU time for df-vj      0.05 sec, wall time      0.05 sec
E1 = -65.12127548183547  Ecoul = 33.64305489245385  Exc = -6.4763827639300455
cycle= 5 E= -31.6044768222717  delta_E= 3.95e-05  |g|= 0.0134  |ddm|= 0.00821
    CPU time for cycle= 5      0.32 sec, wall time      0.32 sec
  HOMO = -0.337202704564214  LUMO = -0.331945433776045
                  Roothaan           | alpha              | beta
  Highest 2-occ = -0.342247128157313 | -0.365376583845903 | -0.293199133743601
  Lowest 0-occ =  -0.331945433776045 | -0.341655126107891 | -0.322259337798138
  1-occ =         -0.337202704564254 | -0.388115315816678 | -0.286317699838367
  1-occ =         -0.337202704564214 | -0.388115315643853 | -0.286317699728508
  Roothaan mo_energy =
[-0.94898018 -0.94502668 -0.35668022 -0.34224713 -0.34224713 -0.3372027
 -0.3372027  -0.33194543  0.39407327  0.4372954   0.4372954   0.50610791
  0.50610791  0.54283857  0.77206924  0.91362211  1.46789353  1.46789353
  1.46819469  1.47337133  1.47337133  1.48272213  1.48277774  1.48300725
  1.48306287  1.51267595  2.86337935  2.86337935  2.91741952  2.93453219
  2.93453219  2.99564285  5.13562486  5.13562486  5.13577616  5.13577616
  5.15039331  5.15118306  5.15118342  5.15178702  5.15187258  5.15187295
  5.1601023   5.1601023   5.1601025   5.1601025   6.40143574  6.40204934
  6.40204934  6.40557777  6.40557777  6.41424531  6.41442197  6.41498531
  6.41516199  6.42967956 14.78241032 15.14657192]
nelec by numeric integration = [7.00000112 5.00000031]
    CPU time for vxc      0.27 sec, wall time      0.27 sec
    CPU time for df-vj      0.05 sec, wall time      0.05 sec
E1 = -65.12127149890924  Ecoul = 33.643002681211186  Exc = -6.476374069339296
cycle= 6 E= -31.6045163559974  delta_E= -3.95e-05  |g|= 7.65e-05  |ddm|= 0.00819
    CPU time for cycle= 6      0.33 sec, wall time      0.33 sec
  HOMO = -0.337211296989175  LUMO = -0.331950861118258
                  Roothaan           | alpha              | beta
  Highest 2-occ = -0.342253897363155 | -0.365377075182376 | -0.293201063016157
  Lowest 0-occ =  -0.331950861118258 |  -0.34165570760641 | -0.322258986092595
  1-occ =         -0.337211296989179 | -0.388115949449743 | -0.286320187683327
  1-occ =         -0.337211296989175 | -0.388115949454735 | -0.286320187687399
  Roothaan mo_energy =
[-0.94898654 -0.94503297 -0.35668561 -0.3422539  -0.3422539  -0.3372113
 -0.3372113  -0.33195086  0.39406848  0.43729317  0.43729317  0.50610711
  0.50610711  0.54283684  0.77206507  0.91361746  1.4678889   1.4678889
  1.46819117  1.47336668  1.47336668  1.48271816  1.48277378  1.48300328
  1.48305891  1.51267235  2.86337209  2.86337209  2.91741198  2.93452551
  2.93452551  2.99563608  5.13561568  5.13561568  5.13576712  5.13576712
  5.15038815  5.15117601  5.15117631  5.15178178  5.15186555  5.15186585
  5.16009573  5.16009573  5.16009573  5.16009573  6.40142411  6.40203977
  6.40203977  6.40556822  6.40556822  6.41423633  6.41441299  6.41497617
  6.41515284  6.42966805 14.78239992 15.14656145]
nelec by numeric integration = [7.00000112 5.00000031]
    CPU time for vxc      0.29 sec, wall time      0.29 sec
    CPU time for df-vj      0.05 sec, wall time      0.05 sec
E1 = -65.1213279517275  Ecoul = 33.64307470420284  Exc = -6.4763896407631805
cycle= 7 E= -31.6045163572478  delta_E= -1.25e-09  |g|= 8.99e-06  |ddm|= 5.06e-05
    CPU time for cycle= 7      0.35 sec, wall time      0.35 sec
  HOMO = -0.337211885344653  LUMO = -0.331951131365574
                  Roothaan           | alpha              | beta
  Highest 2-occ = -0.342254274973399 | -0.365371713506993 | -0.293195652868337
  Lowest 0-occ =  -0.331951131365574 | -0.341650040806936 | -0.322253377771323
  1-occ =         -0.337211885345082 |  -0.38811030977359 | -0.286314643163327
  1-occ =         -0.337211885344653 | -0.388110309796424 | -0.286314643179523
  Roothaan mo_energy =
[-0.94898686 -0.94503332 -0.35668586 -0.34225427 -0.34225427 -0.33721189
 -0.33721189 -0.33195113  0.39406878  0.43729321  0.43729321  0.50610722
  0.50610722  0.54283621  0.77206458  0.91361771  1.46788871  1.46788871
  1.46819108  1.47336652  1.47336652  1.48271803  1.48277365  1.48300315
  1.48305878  1.51267238  2.86337166  2.86337166  2.9174115   2.93452513
  2.93452513  2.99563537  5.13561506  5.13561506  5.13576651  5.13576651
  5.15038798  5.15117558  5.15117588  5.15178161  5.15186512  5.15186543
  5.16009533  5.16009533  5.16009535  5.16009535  6.40142328  6.40203908
  6.40203908  6.40556753  6.40556753  6.41423574  6.4144124   6.41497558
  6.41515225  6.42966721 14.78239911 15.14656075]
nelec by numeric integration = [7.00000112 5.00000031]
    CPU time for vxc      0.29 sec, wall time      0.29 sec
    CPU time for df-vj      0.05 sec, wall time      0.05 sec
E1 = -65.12133173936824  Ecoul = 33.643080026342176  Exc = -6.476391175171461
cycle= 8 E= -31.6045163571575  delta_E= 9.03e-11  |g|= 2.33e-05  |ddm|= 1.7e-05
    CPU time for cycle= 8      0.34 sec, wall time      0.34 sec
  HOMO = -0.337212052040852  LUMO = -0.331951312847961
                  Roothaan           | alpha              | beta
  Highest 2-occ = -0.342254441732496 | -0.365371353309466 | -0.293195271665491
  Lowest 0-occ =  -0.331951312847961 | -0.341649641655626 | -0.322252984040294
  1-occ =         -0.337212053610617 | -0.388109869136228 | -0.286314226935618
  1-occ =         -0.337212052040852 | -0.388109869359213 | -0.286314225981255
  Roothaan mo_energy =
[-0.94898704 -0.94503346 -0.35668603 -0.34225444 -0.34225444 -0.33721205
 -0.33721205 -0.33195131  0.3940687   0.43729313  0.43729313  0.50610715
  0.50610715  0.54283616  0.77206448  0.91361758  1.46788861  1.46788861
  1.468191    1.47336643  1.47336643  1.48271779  1.48277341  1.4830032
  1.48305883  1.51267228  2.86337148  2.86337148  2.91741124  2.93452497
  2.93452497  2.99563513  5.13561452  5.13561453  5.13576676  5.13576677
  5.15038783  5.15116787  5.15118332  5.15178155  5.15185741  5.15187286
  5.16008761  5.16008761  5.16010283  5.16010283  6.40142305  6.40203882
  6.40203882  6.40556732  6.40556732  6.41423504  6.41441267  6.4149749
  6.41515254  6.42966698 14.7823988  15.14656043]
nelec by numeric integration = [7.00000112 5.00000031]
    CPU time for vxc      0.27 sec, wall time      0.27 sec
    CPU time for df-vj      0.05 sec, wall time      0.05 sec
E1 = -65.12133381329414  Ecoul = 33.64308982716696  Exc = -6.476392897170933
Extra cycle  E= -31.6045103522581  delta_E= 6e-06  |g|= 0.00522  |ddm|= 0.00317
    CPU time for scf_cycle      3.46 sec, wall time      3.50 sec
    CPU time for SCF      3.46 sec, wall time      3.50 sec
converged SCF energy = -31.6045103522581
Using Python 3.x
Wavefunction successfully saved to QMCPACK HDF5 Format
Use: "convert4qmc -pyscf  scf.h5" to generate QMCPACK input files
