#INFO: **** input file is /home/abenali/Work/WorkShop/qmcpack_workshop_2021/qmc_workshop_2021/week4_molecules/03_qmc_ccECP/runs/O2/Dist_2.2/SCF/scf.py ****

#! /usr/bin/env python3

import numpy as np
from numpy import array

### generated pyscfimport text ###
from pyscf import df, scf, dft
### end generated pyscfimport text ###





### generated system text ###
from pyscf import gto as gto_loc
mol = gto_loc.Mole()
mol.verbose  = 5
mol.atom     = '''
               O    0.00000000   0.00000000   0.00000000
               O    0.00000000   0.00000000   2.20000000
               '''
mol.basis    = 'ccecp-ccpvtz'
mol.unit     = 'A'
mol.ecp      = 'ccecp'
mol.charge   = 0
mol.spin     = 2
mol.symmetry = False
mol.build()
### end generated system text ###




### generated calculation text ###
mf = scf.ROKS(mol).density_fit()
mf.max_cycle=200
mf.level_shift=0.0
mf.xc          = 'SCAN'
mf.tol         = '1e-10'
e_scf = mf.kernel()
### end generated calculation text ###



### generated conversion text ###
from PyscfToQmcpack import savetoqmcpack
savetoqmcpack(mol,mf,'scf')
### end generated conversion text ###

#INFO: ******************** input file end ********************


System: uname_result(system='Linux', node='abenali', release='5.11.0-38-generic', version='#42~20.04.1-Ubuntu SMP Tue Sep 28 20:41:07 UTC 2021', machine='x86_64', processor='x86_64')  Threads 1
Python 3.7.11 (default, Sep  9 2021, 02:06:38) 
[GCC 9.3.0]
numpy 1.20.3  scipy 1.6.2
Date: Mon Oct 25 21:21:03 2021
PySCF version 2.0.0a
PySCF path  /home/abenali/Work/src/pyscf
GIT HEAD (branch master) 3e8ba375fd4229f000289589fd02193633380853

[CONFIG] conf_file None
[INPUT] verbose = 5
[INPUT] max_memory = 4000 
[INPUT] num. atoms = 2
[INPUT] num. electrons = 12
[INPUT] charge = 0
[INPUT] spin (= nelec alpha-beta = 2S) = 2
[INPUT] symmetry False subgroup None
[INPUT] Mole.unit = A
[INPUT]  1 O      0.000000000000   0.000000000000   0.000000000000 AA    0.000000000000   0.000000000000   0.000000000000 Bohr
[INPUT]  2 O      0.000000000000   0.000000000000   2.200000000000 AA    0.000000000000   0.000000000000   4.157397474043 Bohr
[INPUT] ---------------- BASIS SET ---------------- 
[INPUT] l, kappa, [nprim/nctr], expnt,             c_1 c_2 ...
[INPUT] O
[INPUT] 0    0    [9    /1   ]  54.775216         -0.0012444
                                25.616801         0.010733
                                11.980245         0.0018889
                                6.992317          -0.1742537
                                2.620277          0.0017622
                                1.225429          0.3161846
                                0.577797          0.4512023
                                0.268022          0.3121534
                                0.125346          0.0511167
[INPUT] 0    0    [1    /1   ]  1.686633             1
[INPUT] 0    0    [1    /1   ]  0.237997             1
[INPUT] 1    0    [9    /1   ]  22.217266         0.0104866
                                10.74755          0.0366435
                                5.315785          0.0803674
                                2.660761          0.162701
                                1.331816          0.2377791
                                0.678626          0.2811422
                                0.333673          0.2643189
                                0.167017          0.1466014
                                0.083598          0.0458145
[INPUT] 1    0    [1    /1   ]  0.600621             1
[INPUT] 1    0    [1    /1   ]  0.184696             1
[INPUT] 2    0    [1    /1   ]  2.404278             1
[INPUT] 2    0    [1    /1   ]  0.66934              1
[INPUT] 3    0    [1    /1   ]  1.423104             1

nuclear repulsion = 8.65926345141818
number of shells = 18
number of NR pGTOs = 122
number of NR cGTOs = 58
basis = ccecp-ccpvtz
ecp = ccecp
CPU time:         0.27


******** <class 'pyscf.df.df_jk.density_fit.<locals>.DFHF'> ********
method = DFHF-ROKS-ROHF-RHF
initial guess = minao
damping factor = 0
level_shift factor = 0.0
DIIS = <class 'pyscf.scf.diis.CDIIS'>
diis_start_cycle = 1
diis_space = 8
SCF conv_tol = 1e-09
SCF conv_tol_grad = None
SCF max_cycles = 200
direct_scf = True
direct_scf_tol = 1e-13
chkfile to save SCF result = /home/abenali/Work/WorkShop/qmcpack_workshop_2021/qmc_workshop_2021/week4_molecules/03_qmc_ccECP/runs/O2/Dist_2.2/SCF/tmp49isi9ul
max_memory 4000 MB (current use 108 MB)
num. doubly occ = 5  num. singly occ = 2
XC library pyscf.dft.libxc version 5.1.5
    S. Lehtola, C. Steigemann, M. J. Oliveira, and M. A. Marques, SoftwareX 7, 1 (2018)
XC functionals = SCAN
    J. Sun, A. Ruzsinszky, and J. P. Perdew, Phys. Rev. Lett. 115, 036402 (2015)
    J. Sun, A. Ruzsinszky, and J. P. Perdew, Phys. Rev. Lett. 115, 036402 (2015)
radial grids: 
    Treutler-Ahlrichs [JCP 102, 346 (1995); DOI:10.1063/1.469408] (M4) radial grids
    
becke partition: Becke, JCP 88, 2547 (1988); DOI:10.1063/1.454033
pruning grids: <function nwchem_prune at 0x7fbe302e0dd0>
grids dens level: 3
symmetrized grids: False
atomic radii adjust function: <function treutler_atomic_radii_adjust at 0x7fbe302e9290>
small_rho_cutoff = 1e-07
Set gradient conv threshold to 3.16228e-05
atom O rad-grids = 75, ang-grids = [ 50  50  50  50  50  50  50  50  50  50  50  50  50  50  50  50  50  50
  50  50  50  50  86  86  86  86  86  86  86  86  86 266 266 266 266 266
 266 266 302 302 302 302 302 302 302 302 302 302 302 302 302 302 302 302
 302 302 302 266 266 266 266 266 266 266 266 266 266 266 266 266 266 266
 266 266 266]
tot grids = 28524
Drop grids 2066
    CPU time for setting up grids      0.03 sec, wall time      0.03 sec
nelec by numeric integration = [6.00000145 6.00000145]
    CPU time for vxc      0.38 sec, wall time      0.38 sec
Even tempered Gaussians are generated as DF auxbasis for  O
  ETB auxbasis for O  [[0, [64.177152, 1]], [0, [32.088576, 1]], [0, [16.044288, 1]], [0, [8.022144, 1]], [0, [4.011072, 1]], [0, [2.005536, 1]], [0, [1.002768, 1]], [0, [0.501384, 1]], [0, [0.250692, 1]], [1, [52.41108427692326, 1]], [1, [26.20554213846163, 1]], [1, [13.102771069230815, 1]], [1, [6.551385534615408, 1]], [1, [3.275692767307704, 1]], [1, [1.637846383653852, 1]], [1, [0.818923191826926, 1]], [1, [0.409461595913463, 1]], [1, [0.2047307979567315, 1]], [2, [42.802176, 1]], [2, [21.401088, 1]], [2, [10.700544, 1]], [2, [5.350272, 1]], [2, [2.675136, 1]], [2, [1.337568, 1]], [2, [0.668784, 1]], [2, [0.334392, 1]], [2, [0.167196, 1]], [3, [7.569571782318998, 1]], [3, [3.784785891159499, 1]], [3, [1.8923929455797495, 1]], [3, [0.9461964727898747, 1]], [3, [0.47309823639493737, 1]], [4, [5.35472, 1]], [4, [2.67736, 1]], [4, [1.33868, 1]]]
num shells = 70, num cGTOs = 286
    CPU time for df-vj      0.05 sec, wall time      0.05 sec
E1 = -69.59501394173003  Ecoul = 35.783483257002885  Exc = -6.3979776136537865
init E= -31.5502448469628
cond(S) = 125.860235991531
    CPU time for initialize scf      0.51 sec, wall time      0.52 sec
  HOMO = -0.345897491833118  LUMO = -0.304837912647514
                  Roothaan           | alpha              | beta
  Highest 2-occ = -0.370025609673718 | -0.370025609673721 | -0.370025609673721
  Lowest 0-occ =  -0.304837912647514 | -0.304837912647515 | -0.304837912647515
  1-occ =         -0.345897491833118 | -0.345897491833119 | -0.345897491833119
  1-occ =         -0.345897491833118 |  -0.34589749183312 |  -0.34589749183312
  Roothaan mo_energy =
[-0.98191998 -0.94998509 -0.40033883 -0.37002561 -0.37002561 -0.34589749
 -0.34589749 -0.30483791  0.41637572  0.41637572  0.45402577  0.52498232
  0.52498232  0.53601411  0.72323178  1.07554536  1.30862472  1.38979285
  1.38979285  1.45771719  1.45774653  1.47861465  1.47864787  1.57679081
  1.57679081  1.95330761  2.85745584  2.85745584  2.92031976  2.93059587
  2.93059587  2.94790063  5.11267794  5.13157786  5.13157786  5.14347583
  5.14353857  5.14678848  5.14684997  5.14716955  5.14716955  5.14732366
  5.14732366  5.1586956   5.1586956   5.19275896  6.29531951  6.33447444
  6.33447444  6.38715146  6.38716241  6.40329297  6.40330503  6.48729205
  6.48729205  6.74595053 14.82097124 15.95339405]
nelec by numeric integration = [7.00000187 5.00000149]
    CPU time for vxc      0.27 sec, wall time      0.27 sec
    CPU time for df-vj      0.05 sec, wall time      0.05 sec
E1 = -69.78380565210863  Ecoul = 35.931454124311685  Exc = -6.494089097158638
cycle= 1 E= -31.6871771735374  delta_E= -0.137  |g|= 0.0718  |ddm|=  1.7
    CPU time for cycle= 1      0.33 sec, wall time      0.33 sec
  HOMO = -0.328435284509913  LUMO = -0.289881729935176
                  Roothaan           | alpha              | beta
  Highest 2-occ = -0.354113143488941 | -0.400110003595956 | -0.305939965377179
  Lowest 0-occ =  -0.289881729935176 | -0.301142512381693 |  -0.27862094748866
  1-occ =         -0.328435284509914 | -0.380282412161845 | -0.275313537596385
  1-occ =         -0.328435284509913 | -0.380282412161844 | -0.275313537596385
  Roothaan mo_energy =
[-0.96672886 -0.93170893 -0.39166967 -0.35411314 -0.35411314 -0.32843528
 -0.32843528 -0.28988173  0.42455025  0.42455025  0.4607328   0.53485328
  0.53485328  0.53729476  0.72804898  1.08725973  1.30852322  1.39064773
  1.39064773  1.47139404  1.47141251  1.49280103  1.49281843  1.5824242
  1.5824242   1.96674524  2.8736409   2.8736409   2.94309561  2.94672542
  2.94672542  2.96673223  5.11487167  5.12259782  5.12259782  5.14753813
  5.14757021  5.14991211  5.14991211  5.15087538  5.15090442  5.15868507
  5.15868507  5.15884249  5.15884249  5.19566867  6.30233708  6.34054335
  6.34054335  6.40431046  6.40498084  6.42062371  6.4212895   6.49574913
  6.49574913  6.7585563  14.84324921 15.97593001]
nelec by numeric integration = [7.00000193 5.00000148]
    CPU time for vxc      0.28 sec, wall time      0.28 sec
    CPU time for df-vj      0.05 sec, wall time      0.05 sec
E1 = -69.72083334149217  Ecoul = 35.845371687894016  Exc = -6.472403114149147
cycle= 2 E= -31.6886013163291  delta_E= -0.00142  |g|= 0.0214  |ddm|= 0.126
    CPU time for cycle= 2      0.34 sec, wall time      0.34 sec
  HOMO = -0.333714829867689  LUMO = -0.294671772060205
                  Roothaan           | alpha              | beta
  Highest 2-occ = -0.359415619707367 | -0.405383427368321 | -0.311478519088042
  Lowest 0-occ =  -0.294671772060205 |  -0.30682544221868 | -0.284539900819665
  1-occ =          -0.33371482986769 | -0.388194909688477 | -0.281148980462269
  1-occ =         -0.333714829867689 | -0.388194909688477 | -0.281148980462269
  Roothaan mo_energy =
[-0.97171615 -0.93734215 -0.3960825  -0.35941562 -0.35941562 -0.33371483
 -0.33371483 -0.29467177  0.42191722  0.42191722  0.45756096  0.53205152
  0.53205152  0.53496264  0.72435883  1.08484101  1.30653855  1.38772511
  1.38772511  1.4685141   1.46851697  1.48990482  1.48990558  1.57952752
  1.57952752  1.96359032  2.86764755  2.86764755  2.93803568  2.94047679
  2.94047679  2.96170055  5.11065571  5.11808465  5.11808465  5.14343595
  5.1434674   5.1456239   5.1456239   5.14679634  5.14682373  5.15464696
  5.15464696  5.15480442  5.15480442  5.19188069  6.29610958  6.33406584
  6.33406584  6.39753645  6.39812466  6.41385197  6.41443588  6.48924089
  6.48924089  6.75219947 14.83433168 15.96696547]
nelec by numeric integration = [7.00000195 5.00000149]
    CPU time for vxc      0.28 sec, wall time      0.28 sec
    CPU time for df-vj      0.05 sec, wall time      0.05 sec
E1 = -69.77031019539238  Ecoul = 35.91066172322828  Exc = -6.4882937610634155
cycle= 3 E= -31.6886787818093  delta_E= -7.75e-05  |g|= 0.011  |ddm|= 0.0353
    CPU time for cycle= 3      0.33 sec, wall time      0.33 sec
  HOMO = -0.331115581310715  LUMO = -0.292089068635955
                  Roothaan           | alpha              | beta
  Highest 2-occ = -0.357235501366021 | -0.400632306659183 | -0.306703616542065
  Lowest 0-occ =  -0.292089068635955 | -0.301607341436784 | -0.279313333454416
  1-occ =         -0.331115581310717 | -0.383015153821666 | -0.275920552926467
  1-occ =         -0.331115581310715 | -0.383015153821665 | -0.275920552926465
  Roothaan mo_energy =
[-0.96942457 -0.93486946 -0.39372623 -0.3572355  -0.3572355  -0.33111558
 -0.33111558 -0.29208907  0.42294053  0.42294053  0.45892066  0.53293629
  0.53293629  0.53606731  0.72591068  1.08625044  1.30785255  1.38897253
  1.38897253  1.4698574   1.46985826  1.49126219  1.49126552  1.58089593
  1.58089593  1.96513247  2.87008953  2.87008953  2.94088583  2.94287587
  2.94287587  2.96446691  5.11254485  5.11986609  5.11986609  5.14526736
  5.14529868  5.14734999  5.14734999  5.14862267  5.14864966  5.15653867
  5.15653867  5.15669617  5.15669617  5.19363681  6.29906163  6.33707507
  6.33707507  6.40056134  6.40108213  6.41688076  6.41739724  6.49227223
  6.49227223  6.75507631 14.83835775 15.97100941]
nelec by numeric integration = [7.00000195 5.00000149]
    CPU time for vxc      0.28 sec, wall time      0.28 sec
    CPU time for df-vj      0.05 sec, wall time      0.05 sec
E1 = -69.75002615457377  Ecoul = 35.88418936272232  Exc = -6.4821297347166364
cycle= 4 E= -31.6887030751499  delta_E= -2.43e-05  |g|= 0.00108  |ddm|= 0.0126
    CPU time for cycle= 4      0.33 sec, wall time      0.33 sec
  HOMO = -0.33146226861846  LUMO = -0.292445862505382
                  Roothaan           | alpha              | beta
  Highest 2-occ = -0.357582970918717 | -0.402541193650489 | -0.308643658735167
  Lowest 0-occ =  -0.292445862505382 | -0.303690648129258 | -0.281443302114383
  1-occ =         -0.331462268618464 |  -0.38513422726333 | -0.278010988020462
  1-occ =          -0.33146226861846 | -0.385134227263328 | -0.278010988020461
  Roothaan mo_energy =
[-0.96978379 -0.93522467 -0.39405358 -0.35758297 -0.35758297 -0.33146227
 -0.33146227 -0.29244586  0.42273965  0.42273965  0.4587956   0.53277373
  0.53277373  0.53582323  0.7256476   1.08601961  1.30761473  1.38872376
  1.38872376  1.46963582  1.46963689  1.49104183  1.49104537  1.58065034
  1.58065034  1.96488694  2.86970994  2.86970994  2.94053454  2.9424922
  2.9424922   2.96412699  5.11224045  5.11952827  5.11952827  5.14496214
  5.14499406  5.14700432  5.14700432  5.14831678  5.14834433  5.15624749
  5.15624749  5.15640499  5.15640499  5.19331237  6.2986      6.336647
  6.336647    6.40013422  6.40065032  6.41645515  6.41696692  6.49185589
  6.49185589  6.75461429 14.8378272  15.97047801]
nelec by numeric integration = [7.00000195 5.00000149]
    CPU time for vxc      0.27 sec, wall time      0.27 sec
    CPU time for df-vj      0.05 sec, wall time      0.05 sec
E1 = -69.75300985818066  Ecoul = 35.88797770389939  Exc = -6.482934589353729
cycle= 5 E= -31.6887032922168  delta_E= -2.17e-07  |g|= 0.000435  |ddm|= 0.0017
    CPU time for cycle= 5      0.33 sec, wall time      0.33 sec
  HOMO = -0.331357379743059  LUMO = -0.292339352251353
                  Roothaan           | alpha              | beta
  Highest 2-occ = -0.357495901396401 | -0.402261884548499 | -0.308360015405679
  Lowest 0-occ =  -0.292339352251353 |  -0.30337976838898 | -0.281126620952742
  1-occ =         -0.331357379743059 | -0.384836823729172 | -0.277711074346549
  1-occ =         -0.331357379743059 | -0.384836823729173 | -0.277711074346548
  Roothaan mo_energy =
[-0.9696882  -0.93512926 -0.39396203 -0.3574959  -0.3574959  -0.33135738
 -0.33135738 -0.29233935  0.42278357  0.42278357  0.45882247  0.53280659
  0.53280659  0.53587093  0.72570081  1.08608621  1.3076705   1.38877168
  1.38877168  1.46969178  1.46969293  1.49109825  1.49110188  1.58070256
  1.58070256  1.96494839  2.86980383  2.86980383  2.94064954  2.94258108
  2.94258108  2.96423639  5.11231143  5.11958444  5.11958444  5.14503129
  5.14506346  5.14706256  5.14706256  5.14838613  5.14841393  5.15632128
  5.15632128  5.15647879  5.15647879  5.19338961  6.29870808  6.33676464
  6.33676464  6.40025397  6.40076529  6.41657478  6.41708176  6.49197208
  6.49197208  6.75471319 14.83798988 15.97064315]
nelec by numeric integration = [7.00000195 5.00000149]
    CPU time for vxc      0.27 sec, wall time      0.27 sec
    CPU time for df-vj      0.05 sec, wall time      0.05 sec
E1 = -69.752139573517  Ecoul = 35.88687436784138  Exc = -6.482701576367246
cycle= 6 E= -31.6887033306247  delta_E= -3.84e-08  |g|= 5.74e-05  |ddm|= 0.000468
    CPU time for cycle= 6      0.32 sec, wall time      0.32 sec
  HOMO = -0.331357724135587  LUMO = -0.292339557732329
                  Roothaan           | alpha              | beta
  Highest 2-occ = -0.357496149001263 | -0.402341054469661 | -0.308442502179131
  Lowest 0-occ =  -0.292339557732329 | -0.303467504437001 | -0.281217787533564
  1-occ =          -0.33135772413559 | -0.384924967470606 | -0.277798009789572
  1-occ =         -0.331357724135587 | -0.384924967470605 | -0.277798009789571
  Roothaan mo_energy =
[-0.96968841 -0.93512949 -0.39396219 -0.35749615 -0.35749615 -0.33135772
 -0.33135772 -0.29233956  0.42278351  0.42278351  0.45882235  0.53280656
  0.53280656  0.53587083  0.72570061  1.08608611  1.30767042  1.38877151
  1.38877151  1.46969166  1.4696928   1.49109812  1.49110175  1.58070237
  1.58070237  1.96494826  2.86980352  2.86980352  2.9406492   2.94258079
  2.94258079  2.96423608  5.11231127  5.11958402  5.11958402  5.14503101
  5.14506318  5.14706215  5.14706215  5.14838585  5.14841365  5.15632099
  5.15632099  5.15647859  5.15647859  5.19338947  6.29870755  6.33676426
  6.33676426  6.4002536   6.40076492  6.41657441  6.41708139  6.4919717
  6.4919717   6.75471255 14.83798943 15.97064271]
nelec by numeric integration = [7.00000195 5.00000149]
    CPU time for vxc      0.28 sec, wall time      0.28 sec
    CPU time for df-vj      0.05 sec, wall time      0.05 sec
E1 = -69.75214219059389  Ecoul = 35.88687779252198  Exc = -6.482702353584951
cycle= 7 E= -31.6887033002387  delta_E= 3.04e-08  |g|= 0.000364  |ddm|= 0.00027
    CPU time for cycle= 7      0.34 sec, wall time      0.34 sec
  HOMO = -0.331359533069157  LUMO = -0.29234066071515
                  Roothaan           | alpha              | beta
  Highest 2-occ = -0.357497452379875 | -0.402340805703194 |  -0.30844219726673
  Lowest 0-occ =   -0.29234066071515 | -0.303467231694708 | -0.281217509123287
  1-occ =         -0.331359533069159 | -0.384924700568967 | -0.277797725299855
  1-occ =         -0.331359533069157 | -0.384924700568923 | -0.277797725299823
  Roothaan mo_energy =
[-0.96968953 -0.93513074 -0.39396304 -0.35749745 -0.35749745 -0.33135953
 -0.33135953 -0.29234066  0.42278316  0.42278316  0.45882171  0.53280642
  0.53280642  0.53587027  0.72569959  1.08608555  1.30766999  1.38877064
  1.38877064  1.46969097  1.4696921   1.49109743  1.49110105  1.5807014
  1.5807014   1.96494757  2.8698019   2.8698019   2.94064741  2.94257923
  2.94257923  2.96423445  5.11231039  5.11958184  5.11958184  5.14502956
  5.14506174  5.14705999  5.14705999  5.14838439  5.14841221  5.15631975
  5.15631975  5.15647726  5.15647726  5.19338871  6.2987048   6.33676229
  6.33676229  6.40025167  6.40076297  6.41657248  6.41707945  6.49196973
  6.49196973  6.75470926 14.83798707 15.97064037]
nelec by numeric integration = [7.00000195 5.00000149]
    CPU time for vxc      0.28 sec, wall time      0.28 sec
    CPU time for df-vj      0.05 sec, wall time      0.05 sec
E1 = -69.7521559409936  Ecoul = 35.886895544505606  Exc = -6.4827063863271075
cycle= 8 E= -31.6887033313969  delta_E= -3.12e-08  |g|= 6.04e-07  |ddm|= 0.000234
    CPU time for cycle= 8      0.33 sec, wall time      0.33 sec
  HOMO = -0.33135969133516  LUMO = -0.292340804306881
                  Roothaan           | alpha              | beta
  Highest 2-occ = -0.357497566685135 | -0.402339484347626 | -0.308440888172938
  Lowest 0-occ =  -0.292340804306881 | -0.303465766019925 | -0.281216070782771
  1-occ =         -0.331359691335161 | -0.384923278399192 | -0.277796327988056
  1-occ =          -0.33135969133516 | -0.384923278399191 | -0.277796327988055
  Roothaan mo_energy =
[-0.96968965 -0.93513086 -0.39396317 -0.35749757 -0.35749757 -0.33135969
 -0.33135969 -0.2923408   0.42278312  0.42278312  0.45882168  0.53280639
  0.53280639  0.53587022  0.72569951  1.08608546  1.30766991  1.38877056
  1.38877056  1.4696909   1.46969203  1.49109736  1.49110097  1.58070132
  1.58070132  1.9649475   2.86980177  2.86980177  2.9406472   2.94257912
  2.94257912  2.96423425  5.11231031  5.11958171  5.11958171  5.14502944
  5.14506163  5.14705986  5.14705986  5.14838428  5.14841209  5.15631966
  5.15631966  5.15647716  5.15647716  5.19338864  6.2987046   6.33676209
  6.33676209  6.4002515   6.40076282  6.41657231  6.41707929  6.49196953
  6.49196953  6.75470906 14.83798682 15.97064012]
nelec by numeric integration = [7.00000195 5.00000149]
    CPU time for vxc      0.27 sec, wall time      0.27 sec
    CPU time for df-vj      0.05 sec, wall time      0.05 sec
E1 = -69.7521570902854  Ecoul = 35.88689700847561  Exc = -6.482706701005351
cycle= 9 E= -31.688703331397  delta_E= -2.84e-14  |g|= 9.74e-09  |ddm|= 6.86e-07
    CPU time for cycle= 9      0.32 sec, wall time      0.32 sec
  HOMO = -0.331359686975913  LUMO = -0.292340800765883
                  Roothaan           | alpha              | beta
  Highest 2-occ = -0.357497562879599 |  -0.40233937817486 |  -0.30844078003082
  Lowest 0-occ =  -0.292340800765883 | -0.303465649478293 | -0.281215952053476
  1-occ =         -0.331359686975913 | -0.384923160560534 | -0.277796213503843
  1-occ =         -0.331359686975913 | -0.384923160560535 | -0.277796213503844
  Roothaan mo_energy =
[-0.96968965 -0.93513085 -0.39396317 -0.35749756 -0.35749756 -0.33135969
 -0.33135969 -0.2923408   0.42278312  0.42278312  0.45882168  0.5328064
  0.5328064   0.53587022  0.72569951  1.08608546  1.30766992  1.38877057
  1.38877057  1.4696909   1.46969203  1.49109736  1.49110097  1.58070132
  1.58070132  1.9649475   2.86980178  2.86980178  2.94064721  2.94257913
  2.94257913  2.96423425  5.11231031  5.11958171  5.11958171  5.14502944
  5.14506163  5.14705986  5.14705986  5.14838428  5.14841209  5.15631966
  5.15631966  5.15647717  5.15647717  5.19338865  6.2987046   6.33676209
  6.33676209  6.4002515   6.40076282  6.41657232  6.4170793   6.49196953
  6.49196953  6.75470906 14.83798683 15.97064013]
nelec by numeric integration = [7.00000195 5.00000149]
    CPU time for vxc      0.21 sec, wall time      0.21 sec
    CPU time for df-vj      0.05 sec, wall time      0.05 sec
E1 = -69.75215706511403  Ecoul = 35.88689697541625  Exc = -6.482706693117361
Extra cycle  E= -31.688703331397  delta_E= -1.42e-14  |g|= 9.64e-09  |ddm|= 1.77e-08
    CPU time for scf_cycle      3.74 sec, wall time      3.76 sec
    CPU time for SCF      3.74 sec, wall time      3.76 sec
converged SCF energy = -31.688703331397
Using Python 3.x
Wavefunction successfully saved to QMCPACK HDF5 Format
Use: "convert4qmc -pyscf  scf.h5" to generate QMCPACK input files
