#INFO: **** input file is /home/abenali/Work/WorkShop/qmcpack_workshop_2021/qmc_workshop_2021/week4_molecules/03_qmc_ccECP/runs/O2/Dist_2.0/SCF/scf.py ****

#! /usr/bin/env python3

import numpy as np
from numpy import array

### generated pyscfimport text ###
from pyscf import df, scf, dft
### end generated pyscfimport text ###





### generated system text ###
from pyscf import gto as gto_loc
mol = gto_loc.Mole()
mol.verbose  = 5
mol.atom     = '''
               O    0.00000000   0.00000000   0.00000000
               O    0.00000000   0.00000000   2.00000000
               '''
mol.basis    = 'ccecp-ccpvtz'
mol.unit     = 'A'
mol.ecp      = 'ccecp'
mol.charge   = 0
mol.spin     = 2
mol.symmetry = True
mol.build()
### end generated system text ###




### generated calculation text ###
mf = scf.ROKS(mol).density_fit()
mf.max_cycle=200
mf.level_shift=0.0
mf.xc          = 'SCAN'
mf.tol         = '1e-10'
e_scf = mf.kernel()
### end generated calculation text ###



### generated conversion text ###
from PyscfToQmcpack import savetoqmcpack
savetoqmcpack(mol,mf,'scf')
### end generated conversion text ###

#INFO: ******************** input file end ********************


System: uname_result(system='Linux', node='abenali', release='5.11.0-38-generic', version='#42~20.04.1-Ubuntu SMP Tue Sep 28 20:41:07 UTC 2021', machine='x86_64', processor='x86_64')  Threads 1
Python 3.7.11 (default, Sep  9 2021, 02:06:38) 
[GCC 9.3.0]
numpy 1.20.3  scipy 1.6.2
Date: Mon Oct 25 19:21:31 2021
PySCF version 2.0.0a
PySCF path  /home/abenali/Work/src/pyscf
GIT HEAD (branch master) 3e8ba375fd4229f000289589fd02193633380853

[CONFIG] conf_file None
[INPUT] verbose = 5
[INPUT] max_memory = 4000 
[INPUT] num. atoms = 2
[INPUT] num. electrons = 12
[INPUT] charge = 0
[INPUT] spin (= nelec alpha-beta = 2S) = 2
[INPUT] symmetry True subgroup None
[INPUT] Mole.unit = A
[INPUT]  1 O      0.000000000000   0.000000000000   0.000000000000 AA    0.000000000000   0.000000000000   0.000000000000 Bohr
[INPUT]  2 O      0.000000000000   0.000000000000   2.000000000000 AA    0.000000000000   0.000000000000   3.779452249130 Bohr
[INPUT] ---------------- BASIS SET ---------------- 
[INPUT] l, kappa, [nprim/nctr], expnt,             c_1 c_2 ...
[INPUT] O
[INPUT] 0    0    [9    /1   ]  54.775216         -0.0012444
                                25.616801         0.010733
                                11.980245         0.0018889
                                6.992317          -0.1742537
                                2.620277          0.0017622
                                1.225429          0.3161846
                                0.577797          0.4512023
                                0.268022          0.3121534
                                0.125346          0.0511167
[INPUT] 0    0    [1    /1   ]  1.686633             1
[INPUT] 0    0    [1    /1   ]  0.237997             1
[INPUT] 1    0    [9    /1   ]  22.217266         0.0104866
                                10.74755          0.0366435
                                5.315785          0.0803674
                                2.660761          0.162701
                                1.331816          0.2377791
                                0.678626          0.2811422
                                0.333673          0.2643189
                                0.167017          0.1466014
                                0.083598          0.0458145
[INPUT] 1    0    [1    /1   ]  0.600621             1
[INPUT] 1    0    [1    /1   ]  0.184696             1
[INPUT] 2    0    [1    /1   ]  2.404278             1
[INPUT] 2    0    [1    /1   ]  0.66934              1
[INPUT] 3    0    [1    /1   ]  1.423104             1

nuclear repulsion = 9.52518979656
point group symmetry = Dooh
num. orbitals of irrep A1g = 9
num. orbitals of irrep E1gx = 6
num. orbitals of irrep E1gy = 6
num. orbitals of irrep A1u = 9
num. orbitals of irrep E1uy = 6
num. orbitals of irrep E1ux = 6
num. orbitals of irrep E2gx = 3
num. orbitals of irrep E2gy = 3
num. orbitals of irrep E3gx = 1
num. orbitals of irrep E3gy = 1
num. orbitals of irrep E2uy = 3
num. orbitals of irrep E2ux = 3
num. orbitals of irrep E3uy = 1
num. orbitals of irrep E3ux = 1
number of shells = 18
number of NR pGTOs = 122
number of NR cGTOs = 58
basis = ccecp-ccpvtz
ecp = ccecp
CPU time:         0.30


******** <class 'pyscf.df.df_jk.density_fit.<locals>.DFHF'> ********
method = DFHF-SymAdaptedROKS-SymAdaptedROHF-ROHF-RHF
initial guess = minao
damping factor = 0
level_shift factor = 0.0
DIIS = <class 'pyscf.scf.diis.CDIIS'>
diis_start_cycle = 1
diis_space = 8
SCF conv_tol = 1e-09
SCF conv_tol_grad = None
SCF max_cycles = 200
direct_scf = True
direct_scf_tol = 1e-13
chkfile to save SCF result = /home/abenali/Work/WorkShop/qmcpack_workshop_2021/qmc_workshop_2021/week4_molecules/03_qmc_ccECP/runs/O2/Dist_2.0/SCF/tmpsizmth7y
max_memory 4000 MB (current use 112 MB)
num. doubly occ = 5  num. singly occ = 2
XC library pyscf.dft.libxc version 5.1.5
    S. Lehtola, C. Steigemann, M. J. Oliveira, and M. A. Marques, SoftwareX 7, 1 (2018)
XC functionals = SCAN
    J. Sun, A. Ruzsinszky, and J. P. Perdew, Phys. Rev. Lett. 115, 036402 (2015)
    J. Sun, A. Ruzsinszky, and J. P. Perdew, Phys. Rev. Lett. 115, 036402 (2015)
radial grids: 
    Treutler-Ahlrichs [JCP 102, 346 (1995); DOI:10.1063/1.469408] (M4) radial grids
    
becke partition: Becke, JCP 88, 2547 (1988); DOI:10.1063/1.454033
pruning grids: <function nwchem_prune at 0x7fa5418ccdd0>
grids dens level: 3
symmetrized grids: True
atomic radii adjust function: <function treutler_atomic_radii_adjust at 0x7fa5418d5290>
small_rho_cutoff = 1e-07
Freeze 0 electrons in irreps []
    12 free electrons in irreps A1g E1gx E1gy A1u E1uy E1ux E2gx E2gy E3gx E3gy E2uy E2ux E3uy E3ux
Set gradient conv threshold to 3.16228e-05
atom O rad-grids = 75, ang-grids = [ 50  50  50  50  50  50  50  50  50  50  50  50  50  50  50  50  50  50
  50  50  50  50  86  86  86  86  86  86  86  86  86 266 266 266 266 266
 266 266 302 302 302 302 302 302 302 302 302 302 302 302 302 302 302 302
 302 302 302 266 266 266 266 266 266 266 266 266 266 266 266 266 266 266
 266 266 266]
tot grids = 28524
Drop grids 2108
    CPU time for setting up grids      0.02 sec, wall time      0.02 sec
nelec by numeric integration = [5.99999945 5.99999945]
    CPU time for vxc      0.45 sec, wall time      0.45 sec
Even tempered Gaussians are generated as DF auxbasis for  O
  ETB auxbasis for O  [[0, [64.177152, 1]], [0, [32.088576, 1]], [0, [16.044288, 1]], [0, [8.022144, 1]], [0, [4.011072, 1]], [0, [2.005536, 1]], [0, [1.002768, 1]], [0, [0.501384, 1]], [0, [0.250692, 1]], [1, [52.41108427692326, 1]], [1, [26.20554213846163, 1]], [1, [13.102771069230815, 1]], [1, [6.551385534615408, 1]], [1, [3.275692767307704, 1]], [1, [1.637846383653852, 1]], [1, [0.818923191826926, 1]], [1, [0.409461595913463, 1]], [1, [0.2047307979567315, 1]], [2, [42.802176, 1]], [2, [21.401088, 1]], [2, [10.700544, 1]], [2, [5.350272, 1]], [2, [2.675136, 1]], [2, [1.337568, 1]], [2, [0.668784, 1]], [2, [0.334392, 1]], [2, [0.167196, 1]], [3, [7.569571782318998, 1]], [3, [3.784785891159499, 1]], [3, [1.8923929455797495, 1]], [3, [0.9461964727898747, 1]], [3, [0.47309823639493737, 1]], [4, [5.35472, 1]], [4, [2.67736, 1]], [4, [1.33868, 1]]]
num shells = 70, num cGTOs = 286
    CPU time for df-vj      0.06 sec, wall time      0.06 sec
E1 = -71.3175655445178  Ecoul = 36.63201931631225  Exc = -6.410053667198246
init E= -31.5704100988438
cond(S) = 153.69750307951088
    CPU time for initialize scf      0.58 sec, wall time      0.58 sec
HOMO (E1gx) = -0.339849505110404  LUMO (A1u) = -0.278528568130554
double occ irrep_nelec = [2, 0, 0, 1, 1, 1, 0, 0, 0, 0, 0, 0, 0, 0]
single occ irrep_nelec = [0, 1, 1, 0, 0, 0, 0, 0, 0, 0, 0, 0, 0, 0]
                  Roothaan           | alpha              | beta
  Highest 2-occ = -0.377961571333645 | -0.377961571333646 | -0.377961571333646
  Lowest 0-occ =  -0.278528568130554 | -0.278528568130551 | -0.278528568130551
  1-occ =         -0.339849505110404 | -0.339849505110404 | -0.339849505110404
  1-occ =         -0.339849505110405 | -0.339849505110405 | -0.339849505110405
  Roothaan mo_energy =
[-0.99568853 -0.41770022  0.54800059  0.74317354  1.28936259  2.86248703
  5.05530042  6.34976843 14.91523137 -0.33984951  0.52810261  1.66141748
  2.93889811  5.1986321   6.57049361 -0.33984951  0.52810261  1.66141748
  2.93889811  5.1986321   6.57049361 -0.94049955 -0.27852857  0.43293648
  1.1229862   2.10709147  3.04892363  5.29664884  6.97329773 16.21466537
 -0.37796157  0.4201158   1.33078836  2.8486828   5.08635794  6.3013127
 -0.37796157  0.4201158   1.33078836  2.8486828   5.08635794  6.3013127
  1.4429899   5.13322384  6.37632204  1.44299762  5.1331335   6.37642719
  5.14668006  5.14668006  1.48994232  5.15162882  6.41326702  1.48991466
  5.15171588  6.41315785  5.14560614  5.14560614]
nelec by numeric integration = [6.99999939 4.99999954]
    CPU time for vxc      0.35 sec, wall time      0.35 sec
    CPU time for df-vj      0.06 sec, wall time      0.06 sec
E1 = -71.51756337359578  Ecoul = 36.77340397808552  Exc = -6.50993450737667
cycle= 1 E= -31.7289041063269  delta_E= -0.158  |g|= 0.0766  |ddm|=  1.7
    CPU time for cycle= 1      0.42 sec, wall time      0.42 sec
HOMO (E1gx) = -0.322547169431246  LUMO (A1u) = -0.26454612077804
double occ irrep_nelec = [2, 0, 0, 1, 1, 1, 0, 0, 0, 0, 0, 0, 0, 0]
single occ irrep_nelec = [0, 1, 1, 0, 0, 0, 0, 0, 0, 0, 0, 0, 0, 0]
                  Roothaan           | alpha              | beta
  Highest 2-occ = -0.362972763334939 | -0.410927751578428 |  -0.31501777509145
  Lowest 0-occ =   -0.26454612077804 | -0.276135257225812 |  -0.25295698433027
  1-occ =         -0.322547169431246 | -0.375439628028648 | -0.268280503711233
  1-occ =         -0.322547169431247 |  -0.37543962802865 | -0.268280503711234
  Roothaan mo_energy =
[-0.98215616 -0.40836501  0.55500669  0.74692453  1.286137    2.87970131
  5.05698081  6.35640703 14.93595711 -0.32254717  0.53872462  1.66772163
  2.95503812  5.18994324  6.57926991 -0.32254717  0.53872462  1.66772163
  2.95503812  5.18994324  6.57926991 -0.92210339 -0.26454612  0.44264043
  1.1348954   2.11705342  3.07105058  5.296091    6.98355885 16.2360408
 -0.36297276  0.42871835  1.33017736  2.86423563  5.07865234  6.30562946
 -0.36297276  0.42871835  1.33017736  2.86423563  5.07865234  6.30562946
  1.45634116  5.13734572  6.39260738  1.4565635   5.13715568  6.39348213
  5.15822438  5.15822438  1.50454156  5.15564245  6.43075597  1.50435504
  5.15581915  6.42989571  5.15713653  5.15713653]
nelec by numeric integration = [6.99999943 4.99999957]
    CPU time for vxc      0.36 sec, wall time      0.36 sec
    CPU time for df-vj      0.07 sec, wall time      0.07 sec
E1 = -71.48036256038577  Ecoul = 36.717237981175394  Exc = -6.492451839648847
cycle= 2 E= -31.7303866222992  delta_E= -0.00148  |g|= 0.0254  |ddm|= 0.129
    CPU time for cycle= 2      0.44 sec, wall time      0.44 sec
HOMO (E1gx) = -0.325610823962262  LUMO (A1u) = -0.267047731038328
double occ irrep_nelec = [2, 0, 0, 1, 1, 1, 0, 0, 0, 0, 0, 0, 0, 0]
single occ irrep_nelec = [0, 1, 1, 0, 0, 0, 0, 0, 0, 0, 0, 0, 0, 0]
                  Roothaan           | alpha              | beta
  Highest 2-occ = -0.365902134945074 | -0.415733914885436 | -0.318070321789458
  Lowest 0-occ =  -0.267047731038328 | -0.279404622215801 | -0.256382065310748
  1-occ =         -0.325610823962262 | -0.381144164836231 | -0.271938969467576
  1-occ =         -0.325610823962263 | -0.381144164836233 | -0.271938969467577
  Roothaan mo_energy =
[-0.98434068 -0.41091971  0.55351047  0.74577833  1.28641947  2.87658419
  5.05478697  6.35353019 14.93042648 -0.32561082  0.53689266  1.66615661
  2.95118622  5.18832372  6.5752475  -0.32561082  0.53689266  1.66615661
  2.95118622  5.18832372  6.5752475  -0.92577799 -0.26704773  0.43968588
  1.13402625  2.11380014  3.06841188  5.29481155  6.97953914 16.23039183
 -0.36590213  0.42737252  1.32925804  2.86063844  5.07625895  6.30215695
 -0.36590213  0.42737252  1.32925804  2.86063844  5.07625895  6.30215695
  1.45511004  5.13533643  6.38865294  1.45531431  5.13514502  6.38943903
  5.15619876  5.15619876  1.50317865  5.15373427  6.42664995  1.503008
  5.1539101   6.42587891  5.15511167  5.15511167]
nelec by numeric integration = [6.99999942 4.99999957]
    CPU time for vxc      0.40 sec, wall time      0.40 sec
    CPU time for df-vj      0.07 sec, wall time      0.07 sec
E1 = -71.50774893624332  Ecoul = 36.755410199256936  Exc = -6.503370373964878
cycle= 3 E= -31.7305193143913  delta_E= -0.000133  |g|= 0.00768  |ddm|= 0.0298
    CPU time for cycle= 3      0.48 sec, wall time      0.48 sec
HOMO (E1gx) = -0.324072213990158  LUMO (A1u) = -0.265614961789222
double occ irrep_nelec = [2, 0, 0, 1, 1, 1, 0, 0, 0, 0, 0, 0, 0, 0]
single occ irrep_nelec = [0, 1, 1, 0, 0, 0, 0, 0, 0, 0, 0, 0, 0, 0]
                  Roothaan           | alpha              | beta
  Highest 2-occ = -0.364810485571458 | -0.413087774881767 | -0.315434412528704
  Lowest 0-occ =  -0.265614961789222 | -0.276485654158952 | -0.253529512925145
  1-occ =         -0.324072213990158 |  -0.37802869355774 | -0.268759564362572
  1-occ =         -0.324072213990159 | -0.378028693557742 | -0.268759564362574
  Roothaan mo_energy =
[-0.98320349 -0.40944743  0.55419069  0.7464435   1.28714503  2.87834021
  5.05583862  6.35531292 14.93277584 -0.32407221  0.5372767   1.66681586
  2.95244075  5.189142    6.5770314  -0.32407221  0.5372767   1.66681586
  2.95244075  5.189142    6.5770314  -0.92438501 -0.26561496  0.4407321
  1.13474638  2.11460155  3.06975752  5.29536969  6.98084412 16.23276794
 -0.36481049  0.42779021  1.32976716  2.8619562   5.07729672  6.30387946
 -0.36481049  0.42779021  1.32976716  2.8619562   5.07729672  6.30387946
  1.45578259  5.13633429  6.39037372  1.45597659  5.13614704  6.39109577
  5.15725537  5.15725537  1.50387447  5.15471069  6.42832534  1.50371397
  5.15488109  6.42761927  5.1561683   5.1561683 ]
nelec by numeric integration = [6.99999942 4.99999957]
    CPU time for vxc      0.45 sec, wall time      0.45 sec
    CPU time for df-vj      0.07 sec, wall time      0.07 sec
E1 = -71.49766693834006  Ecoul = 36.741921378259455  Exc = -6.499975819878971
cycle= 4 E= -31.7305315833996  delta_E= -1.23e-05  |g|= 0.000932  |ddm|= 0.00802
    CPU time for cycle= 4      0.54 sec, wall time      0.54 sec
HOMO (E1gx) = -0.324401234481841  LUMO (A1u) = -0.265962969126693
double occ irrep_nelec = [2, 0, 0, 1, 1, 1, 0, 0, 0, 0, 0, 0, 0, 0]
single occ irrep_nelec = [0, 1, 1, 0, 0, 0, 0, 0, 0, 0, 0, 0, 0, 0]
                  Roothaan           | alpha              | beta
  Highest 2-occ = -0.365136210688545 | -0.414064503253966 | -0.316373775203271
  Lowest 0-occ =  -0.265962969126693 | -0.277521811253008 | -0.254580492304607
  1-occ =         -0.324401234481841 | -0.379135505538011 | -0.269821260541501
  1-occ =         -0.324401234481843 | -0.379135505538013 | -0.269821260541502
  Roothaan mo_energy =
[-0.98354336 -0.40977158  0.55399969  0.74617801  1.28690297  2.87800473
  5.05554723  6.35490017 14.93227508 -0.32440123  0.53711534  1.66657977
  2.9520766   5.18883306  6.57663872 -0.32440123  0.53711534  1.66657977
  2.9520766   5.18883306  6.57663872 -0.92473141 -0.26596297  0.44057688
  1.13453545  2.11436451  3.06941196  5.29506855  6.98044206 16.23227031
 -0.36513621  0.42759696  1.32953744  2.86160098  5.07699505  6.30347784
 -0.36513621  0.42759696  1.32953744  2.86160098  5.07699505  6.30347784
  1.45557611  5.13605395  6.38997396  1.45576988  5.13586653  6.39069227
  5.15698759  5.15698759  1.50366765  5.15442952  6.42792343  1.50350735
  5.15460009  6.42722112  5.15590053  5.15590053]
nelec by numeric integration = [6.99999942 4.99999957]
    CPU time for vxc      0.47 sec, wall time      0.47 sec
    CPU time for df-vj      0.07 sec, wall time      0.07 sec
E1 = -71.50042016220468  Ecoul = 36.74543233652452  Exc = -6.500733701919492
cycle= 5 E= -31.7305317310396  delta_E= -1.48e-07  |g|= 0.00045  |ddm|= 0.00161
    CPU time for cycle= 5      0.55 sec, wall time      0.55 sec
HOMO (E1gx) = -0.324290165025866  LUMO (A1u) = -0.265851624388849
double occ irrep_nelec = [2, 0, 0, 1, 1, 1, 0, 0, 0, 0, 0, 0, 0, 0]
single occ irrep_nelec = [0, 1, 1, 0, 0, 0, 0, 0, 0, 0, 0, 0, 0, 0]
                  Roothaan           | alpha              | beta
  Highest 2-occ =  -0.36504388493846 | -0.413804049625651 | -0.316114766144079
  Lowest 0-occ =  -0.265851624388849 | -0.277230365487015 | -0.254283319325497
  1-occ =         -0.324290165025866 | -0.378858081711136 | -0.269541569772096
  1-occ =         -0.324290165025867 | -0.378858081711138 | -0.269541569772097
  Roothaan mo_energy =
[-0.98344408 -0.40967574  0.55404299  0.74624478  1.28696456  2.87811648
  5.05562439  6.35502421 14.93244685 -0.32429017  0.53714895  1.66663785
  2.95217497  5.18890838  6.57676377 -0.32429017  0.53714895  1.66663785
  2.95217497  5.18890838  6.57676377 -0.92463077 -0.26585162  0.44061072
  1.13460091  2.1144301   3.06953462  5.29515625  6.98056105 16.23244419
 -0.36504388  0.42764346  1.32959154  2.86170328  5.07706785  6.30360589
 -0.36504388  0.42764346  1.32959154  2.86170328  5.07706785  6.30360589
  1.45563523  5.13613174  6.39010198  1.45582869  5.13594442  6.39081659
  5.15706801  5.15706801  1.50372713  5.15450776  6.4280474   1.50356713
  5.15467823  6.4273488   5.15598094  5.15598094]
nelec by numeric integration = [6.99999942 4.99999957]
    CPU time for vxc      0.40 sec, wall time      0.40 sec
    CPU time for df-vj      0.06 sec, wall time      0.06 sec
E1 = -71.49951657875295  Ecoul = 36.74428648367994  Exc = -6.500491473348175
cycle= 6 E= -31.7305317718612  delta_E= -4.08e-08  |g|= 4.16e-06  |ddm|= 0.000485
    CPU time for cycle= 6      0.47 sec, wall time      0.47 sec
HOMO (E1gx) = -0.324290031894618  LUMO (A1u) = -0.265851216033118
double occ irrep_nelec = [2, 0, 0, 1, 1, 1, 0, 0, 0, 0, 0, 0, 0, 0]
single occ irrep_nelec = [0, 1, 1, 0, 0, 0, 0, 0, 0, 0, 0, 0, 0, 0]
                  Roothaan           | alpha              | beta
  Highest 2-occ = -0.365043743826088 | -0.413889770620854 | -0.316199643242859
  Lowest 0-occ =  -0.265851216033118 | -0.277324254244849 | -0.254380481231887
  1-occ =         -0.324290031894618 | -0.378949808196764 | -0.269632525962196
  1-occ =         -0.324290031894619 | -0.378949808196766 | -0.269632525962198
  Roothaan mo_energy =
[-0.98344361 -0.40967485  0.55404292  0.74624491  1.2869652   2.87811686
  5.05562449  6.35502371 14.93244725 -0.32429003  0.53714915  1.66663751
  2.95217469  5.18890749  6.57676403 -0.32429003  0.53714915  1.66663751
  2.95217469  5.18890749  6.57676403 -0.92463049 -0.26585122  0.44061056
  1.13460132  2.11442951  3.06953399  5.29515579  6.98055855 16.23244468
 -0.36504374  0.42764366  1.32959144  2.86170319  5.07706721  6.3036063
 -0.36504374  0.42764366  1.32959144  2.86170319  5.07706721  6.3036063
  1.45563546  5.13613169  6.39010211  1.45582892  5.13594437  6.39081662
  5.15706802  5.15706802  1.50372735  5.15450767  6.42804743  1.50356736
  5.15467814  6.42734894  5.15598095  5.15598095]
nelec by numeric integration = [6.99999942 4.99999957]
    CPU time for vxc      0.34 sec, wall time      0.34 sec
    CPU time for df-vj      0.06 sec, wall time      0.06 sec
E1 = -71.49951816742748  Ecoul = 36.744288511322736  Exc = -6.5004919123191405
cycle= 7 E= -31.7305317718639  delta_E= -2.71e-12  |g|= 2.12e-06  |ddm|= 3.22e-06
    CPU time for cycle= 7      0.41 sec, wall time      0.41 sec
HOMO (E1gx) = -0.324291008279738  LUMO (A1u) = -0.265852150535038
double occ irrep_nelec = [2, 0, 0, 1, 1, 1, 0, 0, 0, 0, 0, 0, 0, 0]
single occ irrep_nelec = [0, 1, 1, 0, 0, 0, 0, 0, 0, 0, 0, 0, 0, 0]
                  Roothaan           | alpha              | beta
  Highest 2-occ = -0.365044553981531 | -0.413889646727682 |  -0.31619946123538
  Lowest 0-occ =  -0.265852150535038 | -0.277324025023656 | -0.254380276046425
  1-occ =         -0.324291008279738 | -0.378949656136834 | -0.269632337147071
  1-occ =          -0.32429100827974 | -0.378949656136836 | -0.269632337147073
  Roothaan mo_energy =
[-0.98344446 -0.4096757   0.55404252  0.74624431  1.28696464  2.87811586
  5.05562381  6.35502256 14.93244578 -0.32429101  0.53714884  1.66663698
  2.95217382  5.18890676  6.57676291 -0.32429101  0.53714884  1.66663698
  2.95217382  5.18890676  6.57676291 -0.92463137 -0.26585215  0.44061021
  1.13460077  2.114429    3.069533    5.29515516  6.98055754 16.23244319
 -0.36504455  0.42764326  1.32959095  2.86170228  5.07706648  6.30360516
 -0.36504455  0.42764326  1.32959095  2.86170228  5.07706648  6.30360516
  1.45563495  5.13613098  6.390101    1.4558284   5.13594366  6.39081554
  5.15706732  5.15706732  1.50372683  5.15450696  6.42804635  1.50356684
  5.15467743  6.42734783  5.15598025  5.15598025]
nelec by numeric integration = [6.99999942 4.99999957]
    CPU time for vxc      0.37 sec, wall time      0.37 sec
    CPU time for df-vj      0.06 sec, wall time      0.06 sec
E1 = -71.4995257193836  Ecoul = 36.7442981542122  Exc = -6.500494003252729
Extra cycle  E= -31.7305317718641  delta_E= -2.34e-13  |g|= 1.75e-06  |ddm|= 4.18e-06
    CPU time for scf_cycle      4.31 sec, wall time      4.31 sec
    CPU time for SCF      4.31 sec, wall time      4.31 sec
converged SCF energy = -31.7305317718641
Using Python 3.x
Wavefunction successfully saved to QMCPACK HDF5 Format
Use: "convert4qmc -pyscf  scf.h5" to generate QMCPACK input files
