#INFO: **** input file is /home/abenali/Work/WorkShop/qmcpack_workshop_2021/qmc_workshop_2021/week4_molecules/03_qmc_ccECP/runs/O2/Dist_2.4/SCF/scf.py ****

#! /usr/bin/env python3

import numpy as np
from numpy import array

### generated pyscfimport text ###
from pyscf import df, scf, dft
### end generated pyscfimport text ###





### generated system text ###
from pyscf import gto as gto_loc
mol = gto_loc.Mole()
mol.verbose  = 5
mol.atom     = '''
               O    0.00000000   0.00000000   0.00000000
               O    0.00000000   0.00000000   2.40000000
               '''
mol.basis    = 'ccecp-ccpvtz'
mol.unit     = 'A'
mol.ecp      = 'ccecp'
mol.charge   = 0
mol.spin     = 2
mol.symmetry = False
mol.build()
### end generated system text ###




### generated calculation text ###
mf = scf.ROKS(mol).density_fit()
mf.max_cycle=200
mf.level_shift=0.0
mf.xc          = 'SCAN'
mf.tol         = '1e-10'
e_scf = mf.kernel()
### end generated calculation text ###



### generated conversion text ###
from PyscfToQmcpack import savetoqmcpack
savetoqmcpack(mol,mf,'scf')
### end generated conversion text ###

#INFO: ******************** input file end ********************


System: uname_result(system='Linux', node='abenali', release='5.11.0-38-generic', version='#42~20.04.1-Ubuntu SMP Tue Sep 28 20:41:07 UTC 2021', machine='x86_64', processor='x86_64')  Threads 1
Python 3.7.11 (default, Sep  9 2021, 02:06:38) 
[GCC 9.3.0]
numpy 1.20.3  scipy 1.6.2
Date: Mon Oct 25 21:21:03 2021
PySCF version 2.0.0a
PySCF path  /home/abenali/Work/src/pyscf
GIT HEAD (branch master) 3e8ba375fd4229f000289589fd02193633380853

[CONFIG] conf_file None
[INPUT] verbose = 5
[INPUT] max_memory = 4000 
[INPUT] num. atoms = 2
[INPUT] num. electrons = 12
[INPUT] charge = 0
[INPUT] spin (= nelec alpha-beta = 2S) = 2
[INPUT] symmetry False subgroup None
[INPUT] Mole.unit = A
[INPUT]  1 O      0.000000000000   0.000000000000   0.000000000000 AA    0.000000000000   0.000000000000   0.000000000000 Bohr
[INPUT]  2 O      0.000000000000   0.000000000000   2.400000000000 AA    0.000000000000   0.000000000000   4.535342698956 Bohr
[INPUT] ---------------- BASIS SET ---------------- 
[INPUT] l, kappa, [nprim/nctr], expnt,             c_1 c_2 ...
[INPUT] O
[INPUT] 0    0    [9    /1   ]  54.775216         -0.0012444
                                25.616801         0.010733
                                11.980245         0.0018889
                                6.992317          -0.1742537
                                2.620277          0.0017622
                                1.225429          0.3161846
                                0.577797          0.4512023
                                0.268022          0.3121534
                                0.125346          0.0511167
[INPUT] 0    0    [1    /1   ]  1.686633             1
[INPUT] 0    0    [1    /1   ]  0.237997             1
[INPUT] 1    0    [9    /1   ]  22.217266         0.0104866
                                10.74755          0.0366435
                                5.315785          0.0803674
                                2.660761          0.162701
                                1.331816          0.2377791
                                0.678626          0.2811422
                                0.333673          0.2643189
                                0.167017          0.1466014
                                0.083598          0.0458145
[INPUT] 1    0    [1    /1   ]  0.600621             1
[INPUT] 1    0    [1    /1   ]  0.184696             1
[INPUT] 2    0    [1    /1   ]  2.404278             1
[INPUT] 2    0    [1    /1   ]  0.66934              1
[INPUT] 3    0    [1    /1   ]  1.423104             1

nuclear repulsion = 7.9376581638
number of shells = 18
number of NR pGTOs = 122
number of NR cGTOs = 58
basis = ccecp-ccpvtz
ecp = ccecp
CPU time:         0.28


******** <class 'pyscf.df.df_jk.density_fit.<locals>.DFHF'> ********
method = DFHF-ROKS-ROHF-RHF
initial guess = minao
damping factor = 0
level_shift factor = 0.0
DIIS = <class 'pyscf.scf.diis.CDIIS'>
diis_start_cycle = 1
diis_space = 8
SCF conv_tol = 1e-09
SCF conv_tol_grad = None
SCF max_cycles = 200
direct_scf = True
direct_scf_tol = 1e-13
chkfile to save SCF result = /home/abenali/Work/WorkShop/qmcpack_workshop_2021/qmc_workshop_2021/week4_molecules/03_qmc_ccECP/runs/O2/Dist_2.4/SCF/tmp2qkwocwo
max_memory 4000 MB (current use 107 MB)
num. doubly occ = 5  num. singly occ = 2
XC library pyscf.dft.libxc version 5.1.5
    S. Lehtola, C. Steigemann, M. J. Oliveira, and M. A. Marques, SoftwareX 7, 1 (2018)
XC functionals = SCAN
    J. Sun, A. Ruzsinszky, and J. P. Perdew, Phys. Rev. Lett. 115, 036402 (2015)
    J. Sun, A. Ruzsinszky, and J. P. Perdew, Phys. Rev. Lett. 115, 036402 (2015)
radial grids: 
    Treutler-Ahlrichs [JCP 102, 346 (1995); DOI:10.1063/1.469408] (M4) radial grids
    
becke partition: Becke, JCP 88, 2547 (1988); DOI:10.1063/1.454033
pruning grids: <function nwchem_prune at 0x7f48b4b36dd0>
grids dens level: 3
symmetrized grids: False
atomic radii adjust function: <function treutler_atomic_radii_adjust at 0x7f48b4b3f290>
small_rho_cutoff = 1e-07
Set gradient conv threshold to 3.16228e-05
atom O rad-grids = 75, ang-grids = [ 50  50  50  50  50  50  50  50  50  50  50  50  50  50  50  50  50  50
  50  50  50  50  86  86  86  86  86  86  86  86  86 266 266 266 266 266
 266 266 302 302 302 302 302 302 302 302 302 302 302 302 302 302 302 302
 302 302 302 266 266 266 266 266 266 266 266 266 266 266 266 266 266 266
 266 266 266]
tot grids = 28524
Drop grids 2022
    CPU time for setting up grids      0.03 sec, wall time      0.03 sec
nelec by numeric integration = [5.99999936 5.99999936]
    CPU time for vxc      0.37 sec, wall time      0.37 sec
Even tempered Gaussians are generated as DF auxbasis for  O
  ETB auxbasis for O  [[0, [64.177152, 1]], [0, [32.088576, 1]], [0, [16.044288, 1]], [0, [8.022144, 1]], [0, [4.011072, 1]], [0, [2.005536, 1]], [0, [1.002768, 1]], [0, [0.501384, 1]], [0, [0.250692, 1]], [1, [52.41108427692326, 1]], [1, [26.20554213846163, 1]], [1, [13.102771069230815, 1]], [1, [6.551385534615408, 1]], [1, [3.275692767307704, 1]], [1, [1.637846383653852, 1]], [1, [0.818923191826926, 1]], [1, [0.409461595913463, 1]], [1, [0.2047307979567315, 1]], [2, [42.802176, 1]], [2, [21.401088, 1]], [2, [10.700544, 1]], [2, [5.350272, 1]], [2, [2.675136, 1]], [2, [1.337568, 1]], [2, [0.668784, 1]], [2, [0.334392, 1]], [2, [0.167196, 1]], [3, [7.569571782318998, 1]], [3, [3.784785891159499, 1]], [3, [1.8923929455797495, 1]], [3, [0.9461964727898747, 1]], [3, [0.47309823639493737, 1]], [4, [5.35472, 1]], [4, [2.67736, 1]], [4, [1.33868, 1]]]
num shells = 70, num cGTOs = 286
    CPU time for df-vj      0.05 sec, wall time      0.05 sec
E1 = -68.15566866409625  Ecoul = 35.06972340751454  Exc = -6.391178559577876
init E= -31.5394656523596
cond(S) = 107.50946170212518
    CPU time for initialize scf      0.50 sec, wall time      0.52 sec
  HOMO = -0.349733168157865  LUMO = -0.321750744954954
                  Roothaan           | alpha              | beta
  Highest 2-occ = -0.365141271225966 | -0.365141271225967 | -0.365141271225967
  Lowest 0-occ =  -0.321750744954954 | -0.321750744954954 | -0.321750744954954
  1-occ =         -0.349733168157867 | -0.349733168157866 | -0.349733168157866
  1-occ =         -0.349733168157865 | -0.349733168157867 | -0.349733168157867
  Roothaan mo_energy =
[-0.97428355 -0.95578738 -0.38784527 -0.36514127 -0.36514127 -0.34973317
 -0.34973317 -0.32175074  0.41611758  0.41611758  0.47646165  0.49609368
  0.5203727   0.5203727   0.72936678  1.03330393  1.3664292   1.43025177
  1.43025177  1.46504308  1.46504776  1.47339528  1.4733999   1.52288156
  1.52288156  1.78326376  2.8555522   2.8555522   2.89425296  2.92824522
  2.92824522  2.99387337  5.13809678  5.14428639  5.14428639  5.14637741
  5.14654325  5.14684238  5.1470083   5.14781268  5.14781268  5.14783036
  5.14783036  5.14954047  5.14954047  5.16187085  6.31305988  6.36555308
  6.36555308  6.39241674  6.39256773  6.39860451  6.39875519  6.43884786
  6.43884786  6.59809528 14.75150872 15.69638337]
nelec by numeric integration = [6.99999909 4.99999923]
    CPU time for vxc      0.26 sec, wall time      0.26 sec
    CPU time for df-vj      0.06 sec, wall time      0.06 sec
E1 = -68.34414426882289  Ecoul = 35.240281939001996  Exc = -6.489335254682087
cycle= 1 E= -31.655539420703  delta_E= -0.116  |g|= 0.0705  |ddm|= 1.71
    CPU time for cycle= 1      0.32 sec, wall time      0.32 sec
  HOMO = -0.330846927600143  LUMO = -0.305673351135567
                  Roothaan           | alpha              | beta
  Highest 2-occ = -0.347361067102806 | -0.385645069665917 |  -0.29910739572004
  Lowest 0-occ =  -0.305673351135567 | -0.316373114470163 | -0.294973587800971
  1-occ =         -0.330846927600143 | -0.381832995706577 | -0.278711227536903
  1-occ =         -0.330846927600143 | -0.381832995706577 | -0.278711227536903
  Roothaan mo_energy =
[-0.95665631 -0.93629366 -0.37736712 -0.34736107 -0.34736107 -0.33084693
 -0.33084693 -0.30567335  0.42452582  0.42452582  0.48196827  0.49408543
  0.53031697  0.53031697  0.73681517  1.04530045  1.36981679  1.43210273
  1.43210273  1.47933387  1.4793639   1.48789322  1.48792174  1.52735971
  1.52735971  1.7957734   2.87337243  2.87337243  2.9156208   2.94582539
  2.94582539  3.01571089  5.13519573  5.13519573  5.14073419  5.14073419
  5.14137323  5.15132497  5.15149469  5.15179343  5.15196352  5.16045765
  5.16045765  5.16047585  5.16047585  5.16560723  6.32250696  6.37419193
  6.37419193  6.41199709  6.41255391  6.4182421   6.41879914  6.44849302
  6.44849302  6.61090185 14.77698335 15.72195281]
nelec by numeric integration = [6.99999894 4.99999917]
    CPU time for vxc      0.27 sec, wall time      0.27 sec
    CPU time for df-vj      0.06 sec, wall time      0.06 sec
E1 = -68.25343582526266  Ecoul = 35.120063448065295  Exc = -6.461179688061138
cycle= 2 E= -31.6568939014585  delta_E= -0.00135  |g|= 0.0243  |ddm|= 0.125
    CPU time for cycle= 2      0.33 sec, wall time      0.33 sec
  HOMO = -0.338496375422931  LUMO = -0.312727802992581
                  Roothaan           | alpha              | beta
  Highest 2-occ = -0.355022589347403 | -0.393365055973861 | -0.307300300419385
  Lowest 0-occ =  -0.312727802992581 | -0.324672486793764 | -0.303421153162212
  1-occ =         -0.338496375422931 | -0.392327624750906 | -0.287123644885539
  1-occ =         -0.338496375422931 | -0.392327624750906 | -0.287123644885539
  Roothaan mo_energy =
[-0.96420611 -0.94412519 -0.38396198 -0.35502259 -0.35502259 -0.33849638
 -0.33849638 -0.3127278   0.42070097  0.42070097  0.47813161  0.49002873
  0.52645206  0.52645206  0.73144846  1.04118594  1.36591767  1.42747279
  1.42747279  1.47484941  1.47488851  1.48341303  1.48344966  1.52289569
  1.52289569  1.79204372  2.86486385  2.86486385  2.90806411  2.93710958
  2.93710958  3.00830893  5.12847428  5.12847428  5.13406524  5.13406524
  5.13521423  5.14511499  5.14530091  5.14558722  5.14577365  5.1544037
  5.1544037   5.15442193  5.15442193  5.15963066  6.31296227  6.36466544
  6.36466544  6.40228221  6.40276751  6.40853597  6.40902165  6.43904772
  6.43904772  6.60171729 14.76440692 15.70932278]
nelec by numeric integration = [6.99999891 4.99999914]
    CPU time for vxc      0.27 sec, wall time      0.27 sec
    CPU time for df-vj      0.06 sec, wall time      0.06 sec
E1 = -68.32405403900998  Ecoul = 35.211934902893354  Exc = -6.482520227486576
cycle= 3 E= -31.6569811998032  delta_E= -8.73e-05  |g|= 0.0143  |ddm|= 0.0443
    CPU time for cycle= 3      0.33 sec, wall time      0.33 sec
  HOMO = -0.335182856298692  LUMO = -0.309408441974045
                  Roothaan           | alpha              | beta
  Highest 2-occ = -0.352110850872962 | -0.386730014242622 | -0.300464585653454
  Lowest 0-occ =  -0.309408441974045 | -0.317374336958648 | -0.296066848181842
  1-occ =         -0.335182856298693 | -0.385105144610829 | -0.279865859677816
  1-occ =         -0.335182856298692 |  -0.38510514461083 | -0.279865859677817
  Roothaan mo_energy =
[-0.96113419 -0.94094227 -0.38097428 -0.35211085 -0.35211085 -0.33518286
 -0.33518286 -0.30940844  0.42211122  0.42211122  0.47964209  0.49156831
  0.52765813  0.52765813  0.73348693  1.04311837  1.3676868   1.42921621
  1.42921621  1.47664634  1.4766916   1.48521621  1.4852589   1.52470417
  1.52470417  1.79408258  2.86805414  2.86805414  2.91165063  2.94024065
  2.94024065  3.01175957  5.13079393  5.13079393  5.13637757  5.13637757
  5.13767947  5.14752033  5.14771247  5.14799184  5.14818451  5.15688227
  5.15688227  5.15690051  5.15690051  5.16207495  6.31676909  6.36851961
  6.36851961  6.40618863  6.40659542  6.4124424   6.41284956  6.44289978
  6.44289978  6.6055039  14.76954431 15.71448433]
nelec by numeric integration = [6.99999892 4.99999915]
    CPU time for vxc      0.27 sec, wall time      0.27 sec
    CPU time for df-vj      0.05 sec, wall time      0.05 sec
E1 = -68.29691671163229  Ecoul = 35.176732599496304  Exc = -6.474496933094764
cycle= 4 E= -31.6570228814307  delta_E= -4.17e-05  |g|= 0.000474  |ddm|= 0.0158
    CPU time for cycle= 4      0.33 sec, wall time      0.33 sec
  HOMO = -0.335286714296789  LUMO = -0.309504499640595
                  Roothaan           | alpha              | beta
  Highest 2-occ = -0.352240897527989 | -0.389241437465559 | -0.303091333904057
  Lowest 0-occ =  -0.309504499640595 | -0.320118115851982 | -0.298865581217584
  1-occ =         -0.335286714296791 | -0.387895546071977 | -0.282643650891554
  1-occ =         -0.335286714296789 | -0.387895546071977 | -0.282643650891553
  Roothaan mo_energy =
[-0.96125882 -0.9410556  -0.381079   -0.3522409  -0.3522409  -0.33528671
 -0.33528671 -0.3095045   0.4220292   0.4220292   0.47961952  0.49140479
  0.52759163  0.52759163  0.73339751  1.04303244  1.36759149  1.42910141
  1.42910141  1.47656123  1.47660747  1.48513237  1.485176    1.52459998
  1.52459998  1.79401661  2.8679046   2.8679046   2.91158009  2.9400852
  2.9400852   3.01166573  5.13061046  5.13061046  5.13619195  5.13619195
  5.13755688  5.14738864  5.1475811   5.14785994  5.14805295  5.1567694
  5.1567694   5.15678765  5.15678765  5.16194552  6.31656174  6.36836907
  6.36836907  6.40604241  6.40643853  6.41229684  6.41269333  6.44275668
  6.44275668  6.60530799 14.76938363 15.71432209]
nelec by numeric integration = [6.99999891 4.99999915]
    CPU time for vxc      0.27 sec, wall time      0.27 sec
    CPU time for df-vj      0.05 sec, wall time      0.05 sec
E1 = -68.29789593698354  Ecoul = 35.1779484571911  Exc = -6.474733608244097
cycle= 5 E= -31.6570229242365  delta_E= -4.28e-08  |g|= 0.000291  |ddm|= 0.000775
    CPU time for cycle= 5      0.33 sec, wall time      0.33 sec
  HOMO = -0.335222618483591  LUMO = -0.309435613674319
                  Roothaan           | alpha              | beta
  Highest 2-occ =  -0.35218632288245 | -0.389146894412513 | -0.302998307035696
  Lowest 0-occ =  -0.309435613674319 | -0.320013173310379 | -0.298761408446074
  1-occ =         -0.335222618483592 | -0.387803290733827 | -0.282547838469803
  1-occ =         -0.335222618483591 | -0.387803290733827 | -0.282547838469803
  Roothaan mo_energy =
[-0.96119741 -0.94099522 -0.38102034 -0.35218632 -0.35218632 -0.33522262
 -0.33522262 -0.30943561  0.42205922  0.42205922  0.47962799  0.4914406
  0.52761404  0.52761404  0.73342414  1.04308107  1.3676276   1.42913164
  1.42913164  1.47659726  1.4766438   1.48516856  1.48521249  1.52463367
  1.52463367  1.79406434  2.86796069  2.86796069  2.91164771  2.9401375
  2.9401375   3.01173415  5.13063871  5.13063871  5.13622152  5.13622152
  5.13760132  5.14742975  5.14762227  5.14790114  5.1480942   5.15681418
  5.15681418  5.15683258  5.15683258  5.16199403  6.31662093  6.36843824
  6.36843824  6.40611451  6.40650712  6.41236892  6.4127619   6.44282566
  6.44282566  6.60536452 14.7694809  15.71442228]
nelec by numeric integration = [6.99999891 4.99999915]
    CPU time for vxc      0.27 sec, wall time      0.27 sec
    CPU time for df-vj      0.05 sec, wall time      0.05 sec
E1 = -68.29735601133382  Ecoul = 35.17726981575684  Exc = -6.4745948971823575
cycle= 6 E= -31.6570229289593  delta_E= -4.72e-09  |g|= 0.000246  |ddm|= 0.000332
    CPU time for cycle= 6      0.33 sec, wall time      0.33 sec
  HOMO = -0.335222699543553  LUMO = -0.309435662827243
                  Roothaan           | alpha              | beta
  Highest 2-occ = -0.352186381656459 |  -0.38919530948011 | -0.303049616224702
  Lowest 0-occ =  -0.309435662827243 | -0.320065808463037 | -0.298816106650647
  1-occ =         -0.335222699543555 | -0.387857277692347 | -0.282601006775175
  1-occ =         -0.335222699543553 | -0.387857277692333 | -0.282601006775165
  Roothaan mo_energy =
[-0.96119746 -0.94099528 -0.38102038 -0.35218638 -0.35218638 -0.3352227
 -0.3352227  -0.30943566  0.4220592   0.4220592   0.47962796  0.49144057
  0.52761403  0.52761403  0.73342409  1.04308104  1.36762758  1.4291316
  1.4291316   1.47659723  1.47664376  1.48516853  1.48521246  1.52463363
  1.52463363  1.79406431  2.86796062  2.86796062  2.91164764  2.94013743
  2.94013743  3.01173407  5.13063861  5.13063861  5.13622143  5.13622143
  5.13760128  5.14742969  5.1476222   5.14790108  5.14809413  5.15681415
  5.15681415  5.1568325   5.1568325   5.161994    6.3166208   6.36843814
  6.36843814  6.40611442  6.40650704  6.41236884  6.41276181  6.44282557
  6.44282557  6.60536439 14.76948079 15.71442218]
nelec by numeric integration = [6.99999891 4.99999915]
    CPU time for vxc      0.29 sec, wall time      0.29 sec
    CPU time for df-vj      0.05 sec, wall time      0.05 sec
E1 = -68.2973565682258  Ecoul = 35.17727053331212  Exc = -6.474595062755735
cycle= 7 E= -31.6570229338694  delta_E= -4.91e-09  |g|= 0.000198  |ddm|= 0.000282
    CPU time for cycle= 7      0.35 sec, wall time      0.35 sec
  HOMO = -0.335226270766338  LUMO = -0.309438054083374
                  Roothaan           | alpha              | beta
  Highest 2-occ = -0.352189034235226 | -0.389195266330307 | -0.303049467608889
  Lowest 0-occ =  -0.309438054083374 | -0.320065761325166 | -0.298816042344195
  1-occ =         -0.335226270766339 | -0.387857230450166 |   -0.2826009313504
  1-occ =         -0.335226270766338 | -0.387857230450572 | -0.282600931350716
  Roothaan mo_energy =
[-0.96119994 -0.94099785 -0.38102252 -0.35218903 -0.35218903 -0.33522627
 -0.33522627 -0.30943805  0.42205831  0.42205831  0.47962672  0.49143909
  0.52761364  0.52761364  0.73342208  1.04307962  1.36762638  1.42912981
  1.42912981  1.47659567  1.47664221  1.48516698  1.48521091  1.52463185
  1.52463185  1.79406309  2.86795756  2.86795756  2.91164416  2.9401346
  2.9401346   3.01173066  5.13063474  5.13063474  5.13621762  5.13621762
  5.13759939  5.14742684  5.14761933  5.14789822  5.14809126  5.15681159
  5.15681159  5.15682984  5.15682984  5.16199216  6.31661577  6.36843408
  6.36843408  6.40611062  6.40650328  6.41236504  6.41275806  6.44282154
  6.44282154  6.60535904 14.76947609 15.71441753]
nelec by numeric integration = [6.99999891 4.99999915]
    CPU time for vxc      0.29 sec, wall time      0.29 sec
    CPU time for df-vj      0.05 sec, wall time      0.05 sec
E1 = -68.29738187579154  Ecoul = 35.17730322733295  Exc = -6.4746024582751005
cycle= 8 E= -31.6570229429337  delta_E= -9.06e-09  |g|= 5.7e-07  |ddm|= 0.000126
    CPU time for cycle= 8      0.35 sec, wall time      0.35 sec
  HOMO = -0.335226398462762  LUMO = -0.309438185456407
                  Roothaan           | alpha              | beta
  Highest 2-occ = -0.352189126110568 |   -0.3891928726227 | -0.303047045843626
  Lowest 0-occ =  -0.309438185456407 | -0.320063128790002 | -0.298813446569547
  1-occ =         -0.335226398462763 | -0.387854626806089 | -0.282598376991642
  1-occ =         -0.335226398462762 | -0.387854626806091 | -0.282598376991643
  Roothaan mo_energy =
[-0.96120004 -0.94099795 -0.38102263 -0.35218913 -0.35218913 -0.3352264
 -0.3352264  -0.30943819  0.42205827  0.42205827  0.47962669  0.49143905
  0.52761362  0.52761362  0.73342203  1.04307954  1.36762633  1.42912975
  1.42912975  1.47659562  1.47664215  1.48516692  1.48521085  1.52463178
  1.52463178  1.79406299  2.86795746  2.86795746  2.91164396  2.94013452
  2.94013452  3.01173047  5.13063464  5.13063464  5.13621752  5.13621752
  5.13759933  5.14742674  5.14761924  5.14789812  5.14809117  5.15681152
  5.15681152  5.15682977  5.15682977  5.1619921   6.31661561  6.36843391
  6.36843391  6.40611048  6.40650316  6.4123649   6.41275794  6.44282137
  6.44282137  6.60535887 14.76947588 15.71441731]
nelec by numeric integration = [6.99999891 4.99999915]
    CPU time for vxc      0.28 sec, wall time      0.28 sec
    CPU time for df-vj      0.05 sec, wall time      0.05 sec
E1 = -68.29738292920916  Ecoul = 35.177304570550575  Exc = -6.474602748075243
cycle= 9 E= -31.6570229429338  delta_E= -1.35e-13  |g|= 1.01e-08  |ddm|= 6.63e-07
    CPU time for cycle= 9      0.33 sec, wall time      0.33 sec
  HOMO = -0.335226395404621  LUMO = -0.309438183387293
                  Roothaan           | alpha              | beta
  Highest 2-occ = -0.352189123736507 | -0.389192777168519 | -0.303046945702691
  Lowest 0-occ =  -0.309438183387293 |  -0.32006302563393 | -0.298813341140654
  1-occ =         -0.335226395404621 | -0.387854518860577 | -0.282598272006546
  1-occ =         -0.335226395404621 | -0.387854518860578 | -0.282598272006548
  Roothaan mo_energy =
[-0.96120004 -0.94099795 -0.38102263 -0.35218912 -0.35218912 -0.3352264
 -0.3352264  -0.30943818  0.42205827  0.42205827  0.47962669  0.49143905
  0.52761362  0.52761362  0.73342203  1.04307954  1.36762633  1.42912975
  1.42912975  1.47659562  1.47664215  1.48516692  1.48521085  1.52463178
  1.52463178  1.79406299  2.86795746  2.86795746  2.91164396  2.94013452
  2.94013452  3.01173048  5.13063464  5.13063464  5.13621752  5.13621752
  5.13759933  5.14742674  5.14761924  5.14789813  5.14809117  5.15681152
  5.15681152  5.15682977  5.15682977  5.1619921   6.31661561  6.36843391
  6.36843391  6.40611048  6.40650316  6.4123649   6.41275794  6.44282137
  6.44282137  6.60535887 14.76947589 15.71441732]
nelec by numeric integration = [6.99999891 4.99999915]
    CPU time for vxc      0.21 sec, wall time      0.21 sec
    CPU time for df-vj      0.04 sec, wall time      0.04 sec
E1 = -68.29738290726249  Ecoul = 35.17730454171337  Exc = -6.474602741184658
Extra cycle  E= -31.6570229429338  delta_E= 5.68e-14  |g|= 2.86e-07  |ddm|= 2.06e-07
    CPU time for scf_cycle      3.75 sec, wall time      3.77 sec
    CPU time for SCF      3.75 sec, wall time      3.77 sec
converged SCF energy = -31.6570229429338
Using Python 3.x
Wavefunction successfully saved to QMCPACK HDF5 Format
Use: "convert4qmc -pyscf  scf.h5" to generate QMCPACK input files
