/global/cscratch1/sd/aannabe/docs/qmc_workshop_2021/Sc_ccECP/runs/optJ12
  Input file(s): optJ12.in.xml 

=====================================================
                    QMCPACK 3.9.2

       (c) Copyright 2003-  QMCPACK developers

                    Please cite:
 J. Kim et al. J. Phys. Cond. Mat. 30 195901 (2018)
      https://doi.org/10.1088/1361-648X/aab9c3

  Git branch: develop
  Last git commit: 8064ebfec9a8dd88748e8864013168c9aa7e05dd
  Last git commit date: Tue Apr 28 13:44:48 2020 -0500
  Last git commit subject: Merge pull request #2412 from QMCPACK/rc_392
=====================================================
  Global options 

  Total number of MPI ranks = 544
  Number of MPI groups      = 1
  MPI group ID              = 0
  Number of ranks in group  = 544
  MPI ranks per node        = 68
  OMP 1st level threads     = 1
  OMP nested threading disabled or only 1 thread on the 2nd level

  Precision used in this calculation, see definitions in the manual:
  Base precision      = double
  Full precision      = double

  Structure-of-arrays (SoA) optimization enabled

  Input XML = optJ12.in.xml

  Project = optJ12
  date    = 2021-10-18 17:40:47 PDT
  host    = nid11657

 Random Number
 -------------
  Offset for the random number seeds based on time: 15

  Range of prime numbers to use as seeds over processors and threads = 59-4073


 Lattice
 -------
  Lattice is not specified for the Open BC. Add a huge box.
  Simulation cell radius   = 5000000000.000000 bohr
  Wigner-Seitz cell radius = 5000000000.000000 bohr

 Particle Set 
 ------------
  Name: ion0
  Initializing the lattice by the global supercell
  All the species have the same mass 1.000000
  Particle set size: 1

 Particle Set 
 ------------
  Name: e
  Initializing the lattice by the global supercell
  All the species have the same mass 1.000000
  Particle set size: 11

 Wavefunction setup: 
 ------------------- 
  Name: psi0
  LCAO: SoaAtomicBasisSet<MultiQuintic,1>
Reading BasisSet from HDF5 file:../scf/scf.h5
<input node="atomicBasisSet" name="gaussian" expandYlm="pyscf" angular="spherical" elementType="Sc" normalized="no" type="Numerical" expM="0" />
  AO BasisSet for Sc
   Spherical Harmonics contain (-1)^m factor
   Angular momentum m expanded as -l, ... ,l, with the exception of L=1 (1,-1,0)
   Grid is created by the input paremters in h5
    Using log grid ri = 0.000001 rf = 100.000000 npts = 1001
   R(n,l,m,s) 0 0 0 0
   R(n,l,m,s) 1 0 0 0
   R(n,l,m,s) 2 0 0 0
   R(n,l,m,s) 3 0 0 0
   R(n,l,m,s) 4 0 0 0
   R(n,l,m,s) 5 1 0 0
   R(n,l,m,s) 6 1 0 0
   R(n,l,m,s) 7 1 0 0
   R(n,l,m,s) 8 1 0 0
   R(n,l,m,s) 9 1 0 0
   R(n,l,m,s) 10 2 0 0
   R(n,l,m,s) 11 2 0 0
   R(n,l,m,s) 12 2 0 0
   R(n,l,m,s) 13 2 0 0
   R(n,l,m,s) 14 3 0 0
   R(n,l,m,s) 15 3 0 0
   R(n,l,m,s) 16 4 0 0
Expanding Ylm as L=1 as (1,-1,0) and L>1 as -l,-l+1,...,l-1,l
   Adding 1 spherical orbitals
   Adding 1 spherical orbitals
   Adding 1 spherical orbitals
   Adding 1 spherical orbitals
   Adding 1 spherical orbitals
   Adding 3 spherical orbitals
   Adding 3 spherical orbitals
   Adding 3 spherical orbitals
   Adding 3 spherical orbitals
   Adding 3 spherical orbitals
   Adding 5 spherical orbitals
   Adding 5 spherical orbitals
   Adding 5 spherical orbitals
   Adding 5 spherical orbitals
   Adding 7 spherical orbitals
   Adding 7 spherical orbitals
   Adding 9 spherical orbitals
  Setting cutoff radius 235814907565723.625000

   Maximum Angular Momentum  = 4
   Number of Radial functors = 17
   Basis size                = 63

  Created SPOSet builder named 'LCAOBSet' of type molecularorbital
Reuse SPOSetBuilder "LCAOBSet" type MolecularOrbital
  Building SPOSet '' with '' basis set.
Reuse SPOSetBuilder "LCAOBSet" type MolecularOrbital
  Building SPOSet '' with '' basis set.
  Creating a determinant updet group=0 sposet=updet
  Reusing a SPO set updet
  Using DiracDeterminant with DelayedUpdate engine
  Setting delay_rank by default!
  Using rank-1 Sherman-Morrison Fahy update

  Creating a determinant downdet group=1 sposet=downdet
  Reusing a SPO set downdet
  Using DiracDeterminant with DelayedUpdate engine
  Setting delay_rank by default!
  Using rank-1 Sherman-Morrison Fahy update

  Added a fermionic WaveFunctionComponent SlaterDet

   Jastrow
   -------
    Name: J1   Type: One-Body   Function: bspline

    Radial function for element: Sc
     Number of parameters: 24
     Cusp: 0.000000
     Cutoff radius: 12.000000

       Name                        Value Type Recompute Use Index
     ------ ---------------------------- ---- --------- --- -----
      eSc_0                 0.000000e+00    1         1  ON     0
      eSc_1                 0.000000e+00    1         1  ON     1
      eSc_2                 0.000000e+00    1         1  ON     2
      eSc_3                 0.000000e+00    1         1  ON     3
      eSc_4                 0.000000e+00    1         1  ON     4
      eSc_5                 0.000000e+00    1         1  ON     5
      eSc_6                 0.000000e+00    1         1  ON     6
      eSc_7                 0.000000e+00    1         1  ON     7
      eSc_8                 0.000000e+00    1         1  ON     8
      eSc_9                 0.000000e+00    1         1  ON     9
     eSc_10                 0.000000e+00    1         1  ON    10
     eSc_11                 0.000000e+00    1         1  ON    11
     eSc_12                 0.000000e+00    1         1  ON    12
     eSc_13                 0.000000e+00    1         1  ON    13
     eSc_14                 0.000000e+00    1         1  ON    14
     eSc_15                 0.000000e+00    1         1  ON    15
     eSc_16                 0.000000e+00    1         1  ON    16
     eSc_17                 0.000000e+00    1         1  ON    17
     eSc_18                 0.000000e+00    1         1  ON    18
     eSc_19                 0.000000e+00    1         1  ON    19
     eSc_20                 0.000000e+00    1         1  ON    20
     eSc_21                 0.000000e+00    1         1  ON    21
     eSc_22                 0.000000e+00    1         1  ON    22
     eSc_23                 0.000000e+00    1         1  ON    23


   Jastrow
   -------
    Name: J2   Type: Two-Body   Function: bspline

    Radial function for species: u - u
     Number of parameters: 24
     Cusp: -0.25
     Cutoff radius: 12

      Name                        Value Type Recompute Use Index
     ----- ---------------------------- ---- --------- --- -----
      uu_0                 0.000000e+00    1         1  ON     0
      uu_1                 0.000000e+00    1         1  ON     1
      uu_2                 0.000000e+00    1         1  ON     2
      uu_3                 0.000000e+00    1         1  ON     3
      uu_4                 0.000000e+00    1         1  ON     4
      uu_5                 0.000000e+00    1         1  ON     5
      uu_6                 0.000000e+00    1         1  ON     6
      uu_7                 0.000000e+00    1         1  ON     7
      uu_8                 0.000000e+00    1         1  ON     8
      uu_9                 0.000000e+00    1         1  ON     9
     uu_10                 0.000000e+00    1         1  ON    10
     uu_11                 0.000000e+00    1         1  ON    11
     uu_12                 0.000000e+00    1         1  ON    12
     uu_13                 0.000000e+00    1         1  ON    13
     uu_14                 0.000000e+00    1         1  ON    14
     uu_15                 0.000000e+00    1         1  ON    15
     uu_16                 0.000000e+00    1         1  ON    16
     uu_17                 0.000000e+00    1         1  ON    17
     uu_18                 0.000000e+00    1         1  ON    18
     uu_19                 0.000000e+00    1         1  ON    19
     uu_20                 0.000000e+00    1         1  ON    20
     uu_21                 0.000000e+00    1         1  ON    21
     uu_22                 0.000000e+00    1         1  ON    22
     uu_23                 0.000000e+00    1         1  ON    23

    Radial function for species: u - d
     Number of parameters: 24
     Cusp: -0.5
     Cutoff radius: 12

      Name                        Value Type Recompute Use Index
     ----- ---------------------------- ---- --------- --- -----
      ud_0                 0.000000e+00    1         1  ON     0
      ud_1                 0.000000e+00    1         1  ON     1
      ud_2                 0.000000e+00    1         1  ON     2
      ud_3                 0.000000e+00    1         1  ON     3
      ud_4                 0.000000e+00    1         1  ON     4
      ud_5                 0.000000e+00    1         1  ON     5
      ud_6                 0.000000e+00    1         1  ON     6
      ud_7                 0.000000e+00    1         1  ON     7
      ud_8                 0.000000e+00    1         1  ON     8
      ud_9                 0.000000e+00    1         1  ON     9
     ud_10                 0.000000e+00    1         1  ON    10
     ud_11                 0.000000e+00    1         1  ON    11
     ud_12                 0.000000e+00    1         1  ON    12
     ud_13                 0.000000e+00    1         1  ON    13
     ud_14                 0.000000e+00    1         1  ON    14
     ud_15                 0.000000e+00    1         1  ON    15
     ud_16                 0.000000e+00    1         1  ON    16
     ud_17                 0.000000e+00    1         1  ON    17
     ud_18                 0.000000e+00    1         1  ON    18
     ud_19                 0.000000e+00    1         1  ON    19
     ud_20                 0.000000e+00    1         1  ON    20
     ud_21                 0.000000e+00    1         1  ON    21
     ud_22                 0.000000e+00    1         1  ON    22
     ud_23                 0.000000e+00    1         1  ON    23

  QMCHamiltonian::addOperator Kinetic to H, physical Hamiltonian 
  QMCHamiltonian::addOperator ElecElec to H, physical Hamiltonian 
QMCHamiltonian::addOperatorType added type coulomb named ElecElec
  CoulombAA for ion0 is not created.  Number of particles == 1 and nonPeriodic

  ECPotential builder for pseudopotential 

  Adding pseudopotential for Sc
   Linear grid  ri=0 rf=10 npts = 10001
    ECPComponentBuilder::buildSemiLocalAndLocal 
    Assuming Hartree unit
   Number of angular momentum channels 3
   Maximum angular momentum channel 2
   Creating a Linear Grid Rmax=1.7
  Using global grid with delta = 0.001
   Making L=2 a local potential with a radial cutoff of 9.999
    Non-local pseudopotential parameters
    Maximum angular mementum = 1
    Number of non-local channels = 2
       l(0)=0
       l(1)=1
    Cutoff radius = 1.7
    Spherical grids and weights: 
                        1                 0                 0       0.08333333333
                       -1   1.224646799e-16                 0       0.08333333333
             0.4472135955       0.894427191                 0       0.08333333333
            -0.4472135955      0.7236067977      0.5257311121       0.08333333333
             0.4472135955      0.2763932023      0.8506508084       0.08333333333
            -0.4472135955     -0.2763932023      0.8506508084       0.08333333333
             0.4472135955     -0.7236067977      0.5257311121       0.08333333333
            -0.4472135955      -0.894427191   1.095357397e-16       0.08333333333
             0.4472135955     -0.7236067977     -0.5257311121       0.08333333333
            -0.4472135955     -0.2763932023     -0.8506508084       0.08333333333
             0.4472135955      0.2763932023     -0.8506508084       0.08333333333
            -0.4472135955      0.7236067977     -0.5257311121       0.08333333333
    Maximum cutoff radius 1.7
  QMCHamiltonian::addOperator LocalECP to H, physical Hamiltonian 

  Using NonLocalECP potential 
    Maximum grid on a sphere for NonLocalECPotential: 12
  QMCHamiltonian::addOperator NonLocalECP to H, physical Hamiltonian 
QMCHamiltonian::addOperatorType added type pseudo named PseudoPot

  QMCHamiltonian::add2WalkerProperty added
    4 to P::PropertyList 
    0 to P::Collectables 
    starting Index of the observables in P::PropertyList = 9
ParticleSetPool::randomize 1 ParticleSet.
<init source="ion0" target="e">
</init>
  Initialization Execution time = 1.185 secs
=========================================================
 Summary of QMC systems 
=========================================================
ParticleSetPool has: 

  ParticleSet 'e' contains 11 particles :  u(6) d(5)

    u  1.2668570941e+00 -3.5455938098e+00 -6.3170961555e-01
    u -7.3889214020e-01  3.3019926874e+00 -4.3481856652e-01
    u -5.5698838814e-01  4.1625759690e-01 -6.8587476702e-01
    u -2.0536095146e+00  1.2585710476e+00 -4.8745143131e-01
    u  3.9562917826e-01  1.2132519627e+00 -2.0999537789e+00
    u -3.9442200701e-01  6.4118670282e-01 -9.7681709134e-01
    d  2.2640785424e+00  7.9141613962e-01 -3.9168720683e-01
    d -2.2981855978e+00 -1.2077161059e+00 -1.2051941292e+00
    d  1.4442883282e+00 -8.6425446703e-01 -1.7672295744e+00
    d -4.0819617231e-01  7.4708625022e-01  9.5260554515e-01
    (... and 1 more particle positions ...)

  Distance table for dissimilar particles (A-B):
    source: ion0  target: e
    Using structure-of-arrays (SoA) data layout
    Distance computations use open boundary conditions in 3D.

  Distance table for similar particles (A-A):
    source/target: e
    Using structure-of-arrays (SoA) data layout
    Distance computations use open boundary conditions in 3D.


  ParticleSet 'ion0' contains 1 particles :  Sc(1)

    Sc  0.0000000000e+00  0.0000000000e+00  0.0000000000e+00


  Hamiltonian h0
  Kinetic         Kinetic energy
  ElecElec        CoulombAB source=e

  LocalECP        LocalECPotential: ion0
  NonLocalECP     NonLocalECPotential: ion0

Loop execution max-interations = 5

=========================================================
  Start QMCFixedSampleLinearOptimize
  File Root optJ12.s000 append = no 
=========================================================
  Skip QMCDriver::putQMCInfo 
  Resetting Properties of the walkers 1 x 13
  Adding 1 walkers to 0 existing sets
  Total number of walkers: 5.4400000000e+02
  Total weight: 5.4400000000e+02

=========================================================
  Start VMC
  File Root optJ12.s000 append = no 
=========================================================
Resetting walkers
  Using the current 1 walkers.
  Total number of walkers: 5.4400000000e+02
  Total weight: 5.4400000000e+02
  Resetting Properties of the walkers 1 x 13

<vmc function="put">
  qmc_counter=0  my_counter=0
  time step      = 1.0000000000e+00
  blocks         = 20
  steps          = 92
  substeps       = 2
  current        = 0
  target samples = 1.0000000000e+06
  walkers/mpi    = 1

  stepsbetweensamples = 1
  SpinMoves      = no
<parameter name="blocks" condition="int">20</parameter>
<parameter name="blocks_between_recompute" condition="int">0</parameter>
<parameter name="check_properties" condition="int">100</parameter>
<parameter name="checkproperties" condition="int">100</parameter>
<parameter name="current" condition="int">0</parameter>
<parameter name="dmcwalkersperthread" condition="real">1.8390000000e+03</parameter>
<parameter name="maxcpusecs" condition="real">3.6000000000e+05</parameter>
<parameter name="record_configs" condition="int">0</parameter>
<parameter name="record_walkers" condition="int">1</parameter>
<parameter name="recordconfigs" condition="int">0</parameter>
<parameter name="recordwalkers" condition="int">1</parameter>
<parameter name="rewind" condition="int">0</parameter>
<parameter name="samples" condition="real">1.0000000000e+06</parameter>
<parameter name="samplesperthread" condition="real">1.8390000000e+03</parameter>
<parameter name="spinmass" condition="double">1.0000000000e+00</parameter>
<parameter name="spinmoves" condition="string">no</parameter>
<parameter name="steps" condition="int">92</parameter>
<parameter name="stepsbetweensamples" condition="int">1</parameter>
<parameter name="store_configs" condition="int">0</parameter>
<parameter name="storeconfigs" condition="int">0</parameter>
<parameter name="sub_steps" condition="int">2</parameter>
<parameter name="substeps" condition="int">2</parameter>
<parameter name="tau" condition="au">1.0000000000e+00</parameter>
<parameter name="time_step" condition="au">1.0000000000e+00</parameter>
<parameter name="timestep" condition="au">1.0000000000e+00</parameter>
<parameter name="use_drift" condition="string">yes</parameter>
<parameter name="usedrift" condition="string">yes</parameter>
<parameter name="walkers" condition="int">1</parameter>
<parameter name="warmup_steps" condition="int">0</parameter>
<parameter name="warmupsteps" condition="int">0</parameter>
  DumpConfig==false Nothing (configurations, state) will be saved.
  Walker Samples are dumped every 1 steps.
</vmc>
  Set drift_modifier UNR parameter a = 1.0000000000e+00
  Adding a default LocalEnergyEstimator for the MainEstimator 
 Using QMCCostFunction::QMCCostFunction
  Set drift_modifier UNR parameter a = 1.0000000000e+00
  Adding a default LocalEnergyEstimator for the MainEstimator 
<optimization-report>
<vmc stage="main" blocks="20">
  Initial partition of walkers 0 1 

  Using Particle by Particle moves
  Walker moves with drift
  Total Sample Size   =1000416
  Walker distribution on root = 0 1 
  Using Locality Approximation
===== Memory Usage after the buffer registration =====
Available memory on node 0, free + buffers : 89176 MB
Memory footprint by rank 0 on node 0       : 82 MB
==================================================
  Anonymous Buffer size per walker : 6816 Bytes.
MEMORY increase 0 MB VMC::resetRun
====================================================
  SimpleFixedNodeBranch::finalize after a VMC block
    QMC counter        = 0
    time step          = 1
    reference energy   = -46.2106
    reference variance = 2.99651
====================================================
  Execution time = 2.4007e+00
</vmc>
<opt stage="setup">
  <log>
   Reading configurations from h5FileRoot optJ12.s000
  QMCCostFunction is created with 1 threads.
  Using Nonlocal PP in Opt: NonLocalECP
   Number of samples loaded to each thread : 1839 
  VMC Eavg = -4.6136e+01
  VMC Evar = 3.1466e+00
  Total weights = 1.0004e+06
  Execution time = 1.1894e+00
  </log>
</opt>
<opt stage="main" walkers="1000416">
  <log>

*****************************************
Building overlap and Hamiltonian matrices
*****************************************

Among totally 72 optimized parameters, largest LM parameter change : 5.6158e-01 at parameter 0

******************************************************************************
Init Cost =   3.1466e+00    New Cost =   7.8166e-01  Delta Cost =  -2.3649e+00
******************************************************************************

The new set of parameters is valid. Updating the trial wave function!

*****************************************************************************
Applying the update for shift_i =   1.0000e-02     and shift_s =   2.5000e-01
*****************************************************************************
  Execution time = 5.2706e+00
  </log>
  <optVariables href="optJ12.s000.opt.xml">
 eSc_0                -5.615770e-01 1 1  ON 0
 eSc_1                -5.196545e-01 1 1  ON 1
 eSc_2                -3.631129e-01 1 1  ON 2
 eSc_3                -1.844651e-01 1 1  ON 3
 eSc_4                -3.679967e-02 1 1  ON 4
 eSc_5                 6.710312e-02 1 1  ON 5
 eSc_6                 1.385159e-01 1 1  ON 6
 eSc_7                 1.793106e-01 1 1  ON 7
 eSc_8                 2.006062e-01 1 1  ON 8
 eSc_9                 2.042933e-01 1 1  ON 9
eSc_10                 1.962948e-01 1 1  ON 10
eSc_11                 1.796748e-01 1 1  ON 11
eSc_12                 1.550989e-01 1 1  ON 12
eSc_13                 1.273350e-01 1 1  ON 13
eSc_14                 9.710478e-02 1 1  ON 14
eSc_15                 6.742230e-02 1 1  ON 15
eSc_16                 4.091566e-02 1 1  ON 16
eSc_17                 2.120410e-02 1 1  ON 17
eSc_18                 8.120471e-03 1 1  ON 18
eSc_19                 2.872770e-03 1 1  ON 19
eSc_20                -5.967453e-04 1 1  ON 20
eSc_21                -1.450807e-03 1 1  ON 21
eSc_22                -2.069282e-03 1 1  ON 22
eSc_23                -3.060370e-03 1 1  ON 23
  uu_0                 1.843475e-01 1 1  ON 24
  uu_1                 1.085192e-01 1 1  ON 25
  uu_2                 4.958135e-02 1 1  ON 26
  uu_3                 1.184913e-02 1 1  ON 27
  uu_4                -1.324880e-02 1 1  ON 28
  uu_5                -2.832694e-02 1 1  ON 29
  uu_6                -3.571109e-02 1 1  ON 30
  uu_7                -3.828829e-02 1 1  ON 31
  uu_8                -3.851395e-02 1 1  ON 32
  uu_9                -3.705728e-02 1 1  ON 33
 uu_10                -3.421673e-02 1 1  ON 34
 uu_11                -2.983537e-02 1 1  ON 35
 uu_12                -2.449215e-02 1 1  ON 36
 uu_13                -1.869886e-02 1 1  ON 37
 uu_14                -1.222190e-02 1 1  ON 38
 uu_15                -6.711076e-03 1 1  ON 39
 uu_16                -1.407406e-03 1 1  ON 40
 uu_17                 3.040271e-03 1 1  ON 41
 uu_18                 5.732508e-03 1 1  ON 42
 uu_19                 5.250290e-03 1 1  ON 43
 uu_20                 5.529326e-03 1 1  ON 44
 uu_21                 1.981640e-03 1 1  ON 45
 uu_22                -1.534441e-03 1 1  ON 46
 uu_23                -4.897654e-03 1 1  ON 47
  ud_0                 3.360194e-01 1 1  ON 48
  ud_1                 1.801357e-01 1 1  ON 49
  ud_2                 8.681504e-02 1 1  ON 50
  ud_3                 3.886179e-02 1 1  ON 51
  ud_4                 9.384720e-03 1 1  ON 52
  ud_5                -9.453121e-03 1 1  ON 53
  ud_6                -2.071986e-02 1 1  ON 54
  ud_7                -2.694795e-02 1 1  ON 55
  ud_8                -3.040577e-02 1 1  ON 56
  ud_9                -3.229666e-02 1 1  ON 57
 ud_10                -3.328703e-02 1 1  ON 58
 ud_11                -3.354493e-02 1 1  ON 59
 ud_12                -3.312140e-02 1 1  ON 60
 ud_13                -3.260885e-02 1 1  ON 61
 ud_14                -3.205701e-02 1 1  ON 62
 ud_15                -3.121433e-02 1 1  ON 63
 ud_16                -3.013907e-02 1 1  ON 64
 ud_17                -2.945926e-02 1 1  ON 65
 ud_18                -2.836726e-02 1 1  ON 66
 ud_19                -2.710157e-02 1 1  ON 67
 ud_20                -2.572962e-02 1 1  ON 68
 ud_21                -2.361786e-02 1 1  ON 69
 ud_22                -2.013479e-02 1 1  ON 70
 ud_23                -1.703775e-02 1 1  ON 71
  </optVariables>
   Restore the number of walkers to 1, removing 0 walkers.
</opt>
</optimization-report>
  QMC Execution time = 5.279 secs

=========================================================
  Start QMCFixedSampleLinearOptimize
  File Root optJ12.s001 append = no 
=========================================================
  Skip QMCDriver::putQMCInfo 
  Resetting Properties of the walkers 1 x 13

=========================================================
  Start VMC
  File Root optJ12.s001 append = no 
=========================================================
Using existing walkers 
  Resetting Properties of the walkers 1 x 13

<vmc function="put">
  qmc_counter=1  my_counter=0
  time step      = 1
  blocks         = 20
  steps          = 92
  substeps       = 2
  current        = 0
  target samples = 1e+06
  walkers/mpi    = 1

  stepsbetweensamples = 1
  SpinMoves      = no
<parameter name="blocks" condition="int">20</parameter>
<parameter name="blocks_between_recompute" condition="int">0</parameter>
<parameter name="check_properties" condition="int">100</parameter>
<parameter name="checkproperties" condition="int">100</parameter>
<parameter name="current" condition="int">0</parameter>
<parameter name="dmcwalkersperthread" condition="real">1839</parameter>
<parameter name="maxcpusecs" condition="real">3.6e+05</parameter>
<parameter name="record_configs" condition="int">0</parameter>
<parameter name="record_walkers" condition="int">1</parameter>
<parameter name="recordconfigs" condition="int">0</parameter>
<parameter name="recordwalkers" condition="int">1</parameter>
<parameter name="rewind" condition="int">0</parameter>
<parameter name="samples" condition="real">1e+06</parameter>
<parameter name="samplesperthread" condition="real">1839</parameter>
<parameter name="spinmass" condition="double">1</parameter>
<parameter name="spinmoves" condition="string">no</parameter>
<parameter name="steps" condition="int">92</parameter>
<parameter name="stepsbetweensamples" condition="int">1</parameter>
<parameter name="store_configs" condition="int">0</parameter>
<parameter name="storeconfigs" condition="int">0</parameter>
<parameter name="sub_steps" condition="int">2</parameter>
<parameter name="substeps" condition="int">2</parameter>
<parameter name="tau" condition="au">1</parameter>
<parameter name="time_step" condition="au">1</parameter>
<parameter name="timestep" condition="au">1</parameter>
<parameter name="use_drift" condition="string">yes</parameter>
<parameter name="usedrift" condition="string">yes</parameter>
<parameter name="walkers" condition="int">1</parameter>
<parameter name="warmup_steps" condition="int">0</parameter>
<parameter name="warmupsteps" condition="int">0</parameter>
  DumpConfig==false Nothing (configurations, state) will be saved.
  Walker Samples are dumped every 1 steps.
</vmc>
    Restarting, cummulative properties:
      energy     = -46.21
      variance   = 0
      r2accepted = 1e-10
      r2proposed = 1e-10
  Set drift_modifier UNR parameter a = 1
  Adding a default LocalEnergyEstimator for the MainEstimator 
 Using QMCCostFunction::QMCCostFunction
  Set drift_modifier UNR parameter a = 1.0000e+00
<optimization-report>
<vmc stage="main" blocks="20">
  Cannot make clones again. Use existing 1 clones
  Initial partition of walkers 0 1 

  Using Particle by Particle moves
  Walker moves with drift
  Total Sample Size   =1000416
  Walker distribution on root = 0 1 
  Using Locality Approximation
===== Memory Usage after the buffer registration =====
Available memory on node 0, free + buffers : 87817 MB
Memory footprint by rank 0 on node 0       : 99 MB
==================================================
  Anonymous Buffer size per walker : 6816 Bytes.
MEMORY increase 0 MB VMC::resetRun
====================================================
  SimpleFixedNodeBranch::finalize after a VMC block
    QMC counter        = 1
    time step          = 1
    reference energy   = -46.4237
    reference variance = 0.764071
====================================================
  Execution time = 1.9502e+00
</vmc>
<opt stage="setup">
  <log>
   Reading configurations from h5FileRoot optJ12.s001
  QMCCostFunction is created with 1 threads.
  Using Nonlocal PP in Opt: NonLocalECP
   Number of samples loaded to each thread : 1839 
  VMC Eavg = -4.6419e+01
  VMC Evar = 7.1723e-01
  Total weights = 1.0004e+06
  Execution time = 1.2115e+00
  </log>
</opt>
<opt stage="main" walkers="1000416">
  <log>

*****************************************
Building overlap and Hamiltonian matrices
*****************************************

Among totally 72 optimized parameters, largest LM parameter change : 3.6448e-01 at parameter 0

******************************************************************************
Init Cost =   7.1723e-01    New Cost =   7.6012e-01  Delta Cost =   4.2892e-02
******************************************************************************

The new set of parameters is valid. Updating the trial wave function!

*****************************************************************************
Applying the update for shift_i =   1.0000e-02     and shift_s =   6.2500e-02
*****************************************************************************
  Execution time = 4.6116e+00
  </log>
  <optVariables href="optJ12.s001.opt.xml">
 eSc_0                -9.260579e-01 1 1  ON 0
 eSc_1                -8.501623e-01 1 1  ON 1
 eSc_2                -6.246826e-01 1 1  ON 2
 eSc_3                -3.592074e-01 1 1  ON 3
 eSc_4                -1.292589e-01 1 1  ON 4
 eSc_5                 4.820800e-02 1 1  ON 5
 eSc_6                 1.823833e-01 1 1  ON 6
 eSc_7                 2.720603e-01 1 1  ON 7
 eSc_8                 3.268608e-01 1 1  ON 8
 eSc_9                 3.504938e-01 1 1  ON 9
eSc_10                 3.503241e-01 1 1  ON 10
eSc_11                 3.304162e-01 1 1  ON 11
eSc_12                 2.949578e-01 1 1  ON 12
eSc_13                 2.468976e-01 1 1  ON 13
eSc_14                 1.952320e-01 1 1  ON 14
eSc_15                 1.403848e-01 1 1  ON 15
eSc_16                 9.128919e-02 1 1  ON 16
eSc_17                 4.668556e-02 1 1  ON 17
eSc_18                 2.202815e-02 1 1  ON 18
eSc_19                 1.131304e-02 1 1  ON 19
eSc_20                 3.551868e-03 1 1  ON 20
eSc_21                 1.273272e-03 1 1  ON 21
eSc_22                -4.431320e-03 1 1  ON 22
eSc_23                -6.190818e-03 1 1  ON 23
  uu_0                 2.578238e-01 1 1  ON 24
  uu_1                 1.543976e-01 1 1  ON 25
  uu_2                 7.379036e-02 1 1  ON 26
  uu_3                 1.914739e-02 1 1  ON 27
  uu_4                -1.874322e-02 1 1  ON 28
  uu_5                -4.374148e-02 1 1  ON 29
  uu_6                -5.842778e-02 1 1  ON 30
  uu_7                -6.553719e-02 1 1  ON 31
  uu_8                -6.756609e-02 1 1  ON 32
  uu_9                -6.615633e-02 1 1  ON 33
 uu_10                -6.160354e-02 1 1  ON 34
 uu_11                -5.416596e-02 1 1  ON 35
 uu_12                -4.477532e-02 1 1  ON 36
 uu_13                -3.332612e-02 1 1  ON 37
 uu_14                -2.078163e-02 1 1  ON 38
 uu_15                -8.795344e-03 1 1  ON 39
 uu_16                 2.388250e-03 1 1  ON 40
 uu_17                 1.135349e-02 1 1  ON 41
 uu_18                 1.749862e-02 1 1  ON 42
 uu_19                 1.921945e-02 1 1  ON 43
 uu_20                 1.741965e-02 1 1  ON 44
 uu_21                 1.213666e-02 1 1  ON 45
 uu_22                 7.162168e-03 1 1  ON 46
 uu_23                 2.646733e-03 1 1  ON 47
  ud_0                 4.611277e-01 1 1  ON 48
  ud_1                 2.690465e-01 1 1  ON 49
  ud_2                 1.482456e-01 1 1  ON 50
  ud_3                 7.891992e-02 1 1  ON 51
  ud_4                 3.334033e-02 1 1  ON 52
  ud_5                 1.495279e-03 1 1  ON 53
  ud_6                -1.999863e-02 1 1  ON 54
  ud_7                -3.367105e-02 1 1  ON 55
  ud_8                -4.281780e-02 1 1  ON 56
  ud_9                -4.868554e-02 1 1  ON 57
 ud_10                -5.268314e-02 1 1  ON 58
 ud_11                -5.531666e-02 1 1  ON 59
 ud_12                -5.661293e-02 1 1  ON 60
 ud_13                -5.711967e-02 1 1  ON 61
 ud_14                -5.696595e-02 1 1  ON 62
 ud_15                -5.589258e-02 1 1  ON 63
 ud_16                -5.462780e-02 1 1  ON 64
 ud_17                -5.333634e-02 1 1  ON 65
 ud_18                -5.059951e-02 1 1  ON 66
 ud_19                -4.814833e-02 1 1  ON 67
 ud_20                -4.509334e-02 1 1  ON 68
 ud_21                -3.940839e-02 1 1  ON 69
 ud_22                -2.934149e-02 1 1  ON 70
 ud_23                -2.325339e-02 1 1  ON 71
  </optVariables>
   Restore the number of walkers to 1, removing 0 walkers.
</opt>
</optimization-report>
  QMC Execution time = 4.632 secs

=========================================================
  Start QMCFixedSampleLinearOptimize
  File Root optJ12.s002 append = no 
=========================================================
  Skip QMCDriver::putQMCInfo 
  Resetting Properties of the walkers 1 x 13

=========================================================
  Start VMC
  File Root optJ12.s002 append = no 
=========================================================
Using existing walkers 
  Resetting Properties of the walkers 1 x 13

<vmc function="put">
  qmc_counter=2  my_counter=0
  time step      = 1
  blocks         = 20
  steps          = 92
  substeps       = 2
  current        = 0
  target samples = 1e+06
  walkers/mpi    = 1

  stepsbetweensamples = 1
  SpinMoves      = no
<parameter name="blocks" condition="int">20</parameter>
<parameter name="blocks_between_recompute" condition="int">0</parameter>
<parameter name="check_properties" condition="int">100</parameter>
<parameter name="checkproperties" condition="int">100</parameter>
<parameter name="current" condition="int">0</parameter>
<parameter name="dmcwalkersperthread" condition="real">1839</parameter>
<parameter name="maxcpusecs" condition="real">3.6e+05</parameter>
<parameter name="record_configs" condition="int">0</parameter>
<parameter name="record_walkers" condition="int">1</parameter>
<parameter name="recordconfigs" condition="int">0</parameter>
<parameter name="recordwalkers" condition="int">1</parameter>
<parameter name="rewind" condition="int">0</parameter>
<parameter name="samples" condition="real">1e+06</parameter>
<parameter name="samplesperthread" condition="real">1839</parameter>
<parameter name="spinmass" condition="double">1</parameter>
<parameter name="spinmoves" condition="string">no</parameter>
<parameter name="steps" condition="int">92</parameter>
<parameter name="stepsbetweensamples" condition="int">1</parameter>
<parameter name="store_configs" condition="int">0</parameter>
<parameter name="storeconfigs" condition="int">0</parameter>
<parameter name="sub_steps" condition="int">2</parameter>
<parameter name="substeps" condition="int">2</parameter>
<parameter name="tau" condition="au">1</parameter>
<parameter name="time_step" condition="au">1</parameter>
<parameter name="timestep" condition="au">1</parameter>
<parameter name="use_drift" condition="string">yes</parameter>
<parameter name="usedrift" condition="string">yes</parameter>
<parameter name="walkers" condition="int">1</parameter>
<parameter name="warmup_steps" condition="int">0</parameter>
<parameter name="warmupsteps" condition="int">0</parameter>
  DumpConfig==false Nothing (configurations, state) will be saved.
  Walker Samples are dumped every 1 steps.
</vmc>
    Restarting, cummulative properties:
      energy     = -46.32
      variance   = 0
      r2accepted = 1e-10
      r2proposed = 1e-10
  Set drift_modifier UNR parameter a = 1
  Adding a default LocalEnergyEstimator for the MainEstimator 
 Using QMCCostFunction::QMCCostFunction
  Set drift_modifier UNR parameter a = 1.0000e+00
<optimization-report>
<vmc stage="main" blocks="20">
  Cannot make clones again. Use existing 1 clones
  Initial partition of walkers 0 1 

  Using Particle by Particle moves
  Walker moves with drift
  Total Sample Size   =1000416
  Walker distribution on root = 0 1 
  Using Locality Approximation
===== Memory Usage after the buffer registration =====
Available memory on node 0, free + buffers : 87847 MB
Memory footprint by rank 0 on node 0       : 99 MB
==================================================
  Anonymous Buffer size per walker : 6816 Bytes.
MEMORY increase 0 MB VMC::resetRun
====================================================
  SimpleFixedNodeBranch::finalize after a VMC block
    QMC counter        = 2
    time step          = 1
    reference energy   = -46.4086
    reference variance = 0.613265
====================================================
  Execution time = 2.0069e+00
</vmc>
<opt stage="setup">
  <log>
   Reading configurations from h5FileRoot optJ12.s002
  QMCCostFunction is created with 1 threads.
  Using Nonlocal PP in Opt: NonLocalECP
   Number of samples loaded to each thread : 1839 
  VMC Eavg = -4.6452e+01
  VMC Evar = 8.0677e-01
  Total weights = 1.0004e+06
  Execution time = 1.2227e+00
  </log>
</opt>
<opt stage="main" walkers="1000416">
  <log>

*****************************************
Building overlap and Hamiltonian matrices
*****************************************

Among totally 72 optimized parameters, largest LM parameter change : 2.0580e-01 at parameter 0

******************************************************************************
Init Cost =   8.0677e-01    New Cost =   8.5013e-01  Delta Cost =   4.3356e-02
******************************************************************************

The new set of parameters is valid. Updating the trial wave function!

*****************************************************************************
Applying the update for shift_i =   1.0000e-02     and shift_s =   1.5625e-02
*****************************************************************************
  Execution time = 4.7048e+00
  </log>
  <optVariables href="optJ12.s002.opt.xml">
 eSc_0                -1.131854e+00 1 1  ON 0
 eSc_1                -1.040295e+00 1 1  ON 1
 eSc_2                -7.929028e-01 1 1  ON 2
 eSc_3                -4.970151e-01 1 1  ON 3
 eSc_4                -2.331764e-01 1 1  ON 4
 eSc_5                -1.715616e-02 1 1  ON 5
 eSc_6                 1.579703e-01 1 1  ON 6
 eSc_7                 2.881279e-01 1 1  ON 7
 eSc_8                 3.772650e-01 1 1  ON 8
 eSc_9                 4.317556e-01 1 1  ON 9
eSc_10                 4.538858e-01 1 1  ON 10
eSc_11                 4.470283e-01 1 1  ON 11
eSc_12                 4.144144e-01 1 1  ON 12
eSc_13                 3.619778e-01 1 1  ON 13
eSc_14                 2.943285e-01 1 1  ON 14
eSc_15                 2.182572e-01 1 1  ON 15
eSc_16                 1.470501e-01 1 1  ON 16
eSc_17                 8.485169e-02 1 1  ON 17
eSc_18                 4.055530e-02 1 1  ON 18
eSc_19                 1.708108e-02 1 1  ON 19
eSc_20                 1.754037e-03 1 1  ON 20
eSc_21                 4.273377e-04 1 1  ON 21
eSc_22                -4.111811e-03 1 1  ON 22
eSc_23                -6.784546e-03 1 1  ON 23
  uu_0                 2.842527e-01 1 1  ON 24
  uu_1                 1.729526e-01 1 1  ON 25
  uu_2                 8.700469e-02 1 1  ON 26
  uu_3                 2.736038e-02 1 1  ON 27
  uu_4                -1.510416e-02 1 1  ON 28
  uu_5                -4.504336e-02 1 1  ON 29
  uu_6                -6.454258e-02 1 1  ON 30
  uu_7                -7.598267e-02 1 1  ON 31
  uu_8                -8.176793e-02 1 1  ON 32
  uu_9                -8.275467e-02 1 1  ON 33
 uu_10                -7.979952e-02 1 1  ON 34
 uu_11                -7.265673e-02 1 1  ON 35
 uu_12                -6.246954e-02 1 1  ON 36
 uu_13                -4.891072e-02 1 1  ON 37
 uu_14                -3.264800e-02 1 1  ON 38
 uu_15                -1.622409e-02 1 1  ON 39
 uu_16                -1.918253e-04 1 1  ON 40
 uu_17                 1.359243e-02 1 1  ON 41
 uu_18                 2.381287e-02 1 1  ON 42
 uu_19                 2.899700e-02 1 1  ON 43
 uu_20                 2.754953e-02 1 1  ON 44
 uu_21                 2.433401e-02 1 1  ON 45
 uu_22                 1.776610e-02 1 1  ON 46
 uu_23                 1.010816e-02 1 1  ON 47
  ud_0                 5.037266e-01 1 1  ON 48
  ud_1                 3.067173e-01 1 1  ON 49
  ud_2                 1.804755e-01 1 1  ON 50
  ud_3                 1.054036e-01 1 1  ON 51
  ud_4                 5.485584e-02 1 1  ON 52
  ud_5                 1.791028e-02 1 1  ON 53
  ud_6                -8.699166e-03 1 1  ON 54
  ud_7                -2.754500e-02 1 1  ON 55
  ud_8                -4.107646e-02 1 1  ON 56
  ud_9                -5.119476e-02 1 1  ON 57
 ud_10                -5.858640e-02 1 1  ON 58
 ud_11                -6.366169e-02 1 1  ON 59
 ud_12                -6.681093e-02 1 1  ON 60
 ud_13                -6.819261e-02 1 1  ON 61
 ud_14                -6.827443e-02 1 1  ON 62
 ud_15                -6.727884e-02 1 1  ON 63
 ud_16                -6.601455e-02 1 1  ON 64
 ud_17                -6.496039e-02 1 1  ON 65
 ud_18                -6.374767e-02 1 1  ON 66
 ud_19                -6.139054e-02 1 1  ON 67
 ud_20                -5.717546e-02 1 1  ON 68
 ud_21                -5.055073e-02 1 1  ON 69
 ud_22                -3.980771e-02 1 1  ON 70
 ud_23                -3.005102e-02 1 1  ON 71
  </optVariables>
   Restore the number of walkers to 1, removing 0 walkers.
</opt>
</optimization-report>
  QMC Execution time = 4.712 secs

=========================================================
  Start QMCFixedSampleLinearOptimize
  File Root optJ12.s003 append = no 
=========================================================
  Skip QMCDriver::putQMCInfo 
  Resetting Properties of the walkers 1 x 13

=========================================================
  Start VMC
  File Root optJ12.s003 append = no 
=========================================================
Using existing walkers 
  Resetting Properties of the walkers 1 x 13

<vmc function="put">
  qmc_counter=3  my_counter=0
  time step      = 1
  blocks         = 20
  steps          = 92
  substeps       = 2
  current        = 0
  target samples = 1e+06
  walkers/mpi    = 1

  stepsbetweensamples = 1
  SpinMoves      = no
<parameter name="blocks" condition="int">20</parameter>
<parameter name="blocks_between_recompute" condition="int">0</parameter>
<parameter name="check_properties" condition="int">100</parameter>
<parameter name="checkproperties" condition="int">100</parameter>
<parameter name="current" condition="int">0</parameter>
<parameter name="dmcwalkersperthread" condition="real">1839</parameter>
<parameter name="maxcpusecs" condition="real">3.6e+05</parameter>
<parameter name="record_configs" condition="int">0</parameter>
<parameter name="record_walkers" condition="int">1</parameter>
<parameter name="recordconfigs" condition="int">0</parameter>
<parameter name="recordwalkers" condition="int">1</parameter>
<parameter name="rewind" condition="int">0</parameter>
<parameter name="samples" condition="real">1e+06</parameter>
<parameter name="samplesperthread" condition="real">1839</parameter>
<parameter name="spinmass" condition="double">1</parameter>
<parameter name="spinmoves" condition="string">no</parameter>
<parameter name="steps" condition="int">92</parameter>
<parameter name="stepsbetweensamples" condition="int">1</parameter>
<parameter name="store_configs" condition="int">0</parameter>
<parameter name="storeconfigs" condition="int">0</parameter>
<parameter name="sub_steps" condition="int">2</parameter>
<parameter name="substeps" condition="int">2</parameter>
<parameter name="tau" condition="au">1</parameter>
<parameter name="time_step" condition="au">1</parameter>
<parameter name="timestep" condition="au">1</parameter>
<parameter name="use_drift" condition="string">yes</parameter>
<parameter name="usedrift" condition="string">yes</parameter>
<parameter name="walkers" condition="int">1</parameter>
<parameter name="warmup_steps" condition="int">0</parameter>
<parameter name="warmupsteps" condition="int">0</parameter>
  DumpConfig==false Nothing (configurations, state) will be saved.
  Walker Samples are dumped every 1 steps.
</vmc>
    Restarting, cummulative properties:
      energy     = -46.35
      variance   = 0
      r2accepted = 1e-10
      r2proposed = 1e-10
  Set drift_modifier UNR parameter a = 1
  Adding a default LocalEnergyEstimator for the MainEstimator 
 Using QMCCostFunction::QMCCostFunction
  Set drift_modifier UNR parameter a = 1.0000e+00
<optimization-report>
<vmc stage="main" blocks="20">
  Cannot make clones again. Use existing 1 clones
  Initial partition of walkers 0 1 

  Using Particle by Particle moves
  Walker moves with drift
  Total Sample Size   =1000416
  Walker distribution on root = 0 1 
  Using Locality Approximation
===== Memory Usage after the buffer registration =====
Available memory on node 0, free + buffers : 87879 MB
Memory footprint by rank 0 on node 0       : 101 MB
==================================================
  Anonymous Buffer size per walker : 6816 Bytes.
MEMORY increase 0 MB VMC::resetRun
====================================================
  SimpleFixedNodeBranch::finalize after a VMC block
    QMC counter        = 3
    time step          = 1
    reference energy   = -46.4771
    reference variance = 0.685396
====================================================
  Execution time = 1.9711e+00
</vmc>
<opt stage="setup">
  <log>
   Reading configurations from h5FileRoot optJ12.s003
  QMCCostFunction is created with 1 threads.
  Using Nonlocal PP in Opt: NonLocalECP
   Number of samples loaded to each thread : 1839 
  VMC Eavg = -4.6458e+01
  VMC Evar = 1.3234e+00
  Total weights = 1.0004e+06
  Execution time = 1.2043e+00
  </log>
</opt>
<opt stage="main" walkers="1000416">
  <log>

*****************************************
Building overlap and Hamiltonian matrices
*****************************************

Among totally 72 optimized parameters, largest LM parameter change : 1.2670e-01 at parameter 0

******************************************************************************
Init Cost =   1.3234e+00    New Cost =   1.3355e+00  Delta Cost =   1.2055e-02
******************************************************************************

The new set of parameters is valid. Updating the trial wave function!

*****************************************************************************
Applying the update for shift_i =   1.0000e-02     and shift_s =   3.9062e-03
*****************************************************************************
  Execution time = 4.6195e+00
  </log>
  <optVariables href="optJ12.s003.opt.xml">
 eSc_0                -1.258553e+00 1 1  ON 0
 eSc_1                -1.161020e+00 1 1  ON 1
 eSc_2                -9.059073e-01 1 1  ON 2
 eSc_3                -5.973505e-01 1 1  ON 3
 eSc_4                -3.179549e-01 1 1  ON 4
 eSc_5                -8.364283e-02 1 1  ON 5
 eSc_6                 1.137742e-01 1 1  ON 6
 eSc_7                 2.692162e-01 1 1  ON 7
 eSc_8                 3.828617e-01 1 1  ON 8
 eSc_9                 4.615620e-01 1 1  ON 9
eSc_10                 5.069074e-01 1 1  ON 10
eSc_11                 5.215456e-01 1 1  ON 11
eSc_12                 5.034145e-01 1 1  ON 12
eSc_13                 4.572100e-01 1 1  ON 13
eSc_14                 3.891746e-01 1 1  ON 14
eSc_15                 3.033817e-01 1 1  ON 15
eSc_16                 2.120012e-01 1 1  ON 16
eSc_17                 1.313876e-01 1 1  ON 17
eSc_18                 6.674408e-02 1 1  ON 18
eSc_19                 2.723087e-02 1 1  ON 19
eSc_20                 2.737164e-03 1 1  ON 20
eSc_21                -1.304088e-03 1 1  ON 21
eSc_22                -4.246083e-03 1 1  ON 22
eSc_23                -5.440072e-03 1 1  ON 23
  uu_0                 2.969237e-01 1 1  ON 24
  uu_1                 1.832639e-01 1 1  ON 25
  uu_2                 9.586863e-02 1 1  ON 26
  uu_3                 3.470959e-02 1 1  ON 27
  uu_4                -9.483600e-03 1 1  ON 28
  uu_5                -4.135482e-02 1 1  ON 29
  uu_6                -6.319535e-02 1 1  ON 30
  uu_7                -7.718772e-02 1 1  ON 31
  uu_8                -8.564796e-02 1 1  ON 32
  uu_9                -8.965708e-02 1 1  ON 33
 uu_10                -8.956855e-02 1 1  ON 34
 uu_11                -8.457387e-02 1 1  ON 35
 uu_12                -7.549874e-02 1 1  ON 36
 uu_13                -6.277101e-02 1 1  ON 37
 uu_14                -4.656808e-02 1 1  ON 38
 uu_15                -2.794944e-02 1 1  ON 39
 uu_16                -8.061458e-03 1 1  ON 40
 uu_17                 1.081923e-02 1 1  ON 41
 uu_18                 2.483089e-02 1 1  ON 42
 uu_19                 3.337955e-02 1 1  ON 43
 uu_20                 3.495764e-02 1 1  ON 44
 uu_21                 3.176779e-02 1 1  ON 45
 uu_22                 2.519065e-02 1 1  ON 46
 uu_23                 1.656756e-02 1 1  ON 47
  ud_0                 5.234097e-01 1 1  ON 48
  ud_1                 3.253512e-01 1 1  ON 49
  ud_2                 1.976885e-01 1 1  ON 50
  ud_3                 1.209314e-01 1 1  ON 51
  ud_4                 6.808538e-02 1 1  ON 52
  ud_5                 2.875576e-02 1 1  ON 53
  ud_6                -6.609244e-04 1 1  ON 54
  ud_7                -2.276200e-02 1 1  ON 55
  ud_8                -3.918435e-02 1 1  ON 56
  ud_9                -5.223159e-02 1 1  ON 57
 ud_10                -6.159671e-02 1 1  ON 58
 ud_11                -6.915890e-02 1 1  ON 59
 ud_12                -7.394141e-02 1 1  ON 60
 ud_13                -7.668233e-02 1 1  ON 61
 ud_14                -7.777138e-02 1 1  ON 62
 ud_15                -7.634557e-02 1 1  ON 63
 ud_16                -7.394023e-02 1 1  ON 64
 ud_17                -7.060009e-02 1 1  ON 65
 ud_18                -6.721919e-02 1 1  ON 66
 ud_19                -6.390958e-02 1 1  ON 67
 ud_20                -5.935191e-02 1 1  ON 68
 ud_21                -5.301378e-02 1 1  ON 69
 ud_22                -4.206411e-02 1 1  ON 70
 ud_23                -3.020570e-02 1 1  ON 71
  </optVariables>
   Restore the number of walkers to 1, removing 0 walkers.
</opt>
</optimization-report>
  QMC Execution time = 5.747 secs

=========================================================
  Start QMCFixedSampleLinearOptimize
  File Root optJ12.s004 append = no 
=========================================================
  Skip QMCDriver::putQMCInfo 
  Resetting Properties of the walkers 1 x 13

=========================================================
  Start VMC
  File Root optJ12.s004 append = no 
=========================================================
Using existing walkers 
  Resetting Properties of the walkers 1 x 13

<vmc function="put">
  qmc_counter=4  my_counter=0
  time step      = 1
  blocks         = 20
  steps          = 92
  substeps       = 2
  current        = 0
  target samples = 1e+06
  walkers/mpi    = 1

  stepsbetweensamples = 1
  SpinMoves      = no
<parameter name="blocks" condition="int">20</parameter>
<parameter name="blocks_between_recompute" condition="int">0</parameter>
<parameter name="check_properties" condition="int">100</parameter>
<parameter name="checkproperties" condition="int">100</parameter>
<parameter name="current" condition="int">0</parameter>
<parameter name="dmcwalkersperthread" condition="real">1839</parameter>
<parameter name="maxcpusecs" condition="real">3.6e+05</parameter>
<parameter name="record_configs" condition="int">0</parameter>
<parameter name="record_walkers" condition="int">1</parameter>
<parameter name="recordconfigs" condition="int">0</parameter>
<parameter name="recordwalkers" condition="int">1</parameter>
<parameter name="rewind" condition="int">0</parameter>
<parameter name="samples" condition="real">1e+06</parameter>
<parameter name="samplesperthread" condition="real">1839</parameter>
<parameter name="spinmass" condition="double">1</parameter>
<parameter name="spinmoves" condition="string">no</parameter>
<parameter name="steps" condition="int">92</parameter>
<parameter name="stepsbetweensamples" condition="int">1</parameter>
<parameter name="store_configs" condition="int">0</parameter>
<parameter name="storeconfigs" condition="int">0</parameter>
<parameter name="sub_steps" condition="int">2</parameter>
<parameter name="substeps" condition="int">2</parameter>
<parameter name="tau" condition="au">1</parameter>
<parameter name="time_step" condition="au">1</parameter>
<parameter name="timestep" condition="au">1</parameter>
<parameter name="use_drift" condition="string">yes</parameter>
<parameter name="usedrift" condition="string">yes</parameter>
<parameter name="walkers" condition="int">1</parameter>
<parameter name="warmup_steps" condition="int">0</parameter>
<parameter name="warmupsteps" condition="int">0</parameter>
  DumpConfig==false Nothing (configurations, state) will be saved.
  Walker Samples are dumped every 1 steps.
</vmc>
    Restarting, cummulative properties:
      energy     = -46.38
      variance   = 0
      r2accepted = 1e-10
      r2proposed = 1e-10
  Set drift_modifier UNR parameter a = 1
  Adding a default LocalEnergyEstimator for the MainEstimator 
 Using QMCCostFunction::QMCCostFunction
  Set drift_modifier UNR parameter a = 1.0000e+00
<optimization-report>
<vmc stage="main" blocks="20">
  Cannot make clones again. Use existing 1 clones
  Initial partition of walkers 0 1 

  Using Particle by Particle moves
  Walker moves with drift
  Total Sample Size   =1000416
  Walker distribution on root = 0 1 
  Using Locality Approximation
===== Memory Usage after the buffer registration =====
Available memory on node 0, free + buffers : 87893 MB
Memory footprint by rank 0 on node 0       : 101 MB
==================================================
  Anonymous Buffer size per walker : 6816 Bytes.
MEMORY increase 0 MB VMC::resetRun
====================================================
  SimpleFixedNodeBranch::finalize after a VMC block
    QMC counter        = 4
    time step          = 1
    reference energy   = -46.512
    reference variance = 0.512339
====================================================
  Execution time = 2.4978e+00
</vmc>
<opt stage="setup">
  <log>
   Reading configurations from h5FileRoot optJ12.s004
  QMCCostFunction is created with 1 threads.
  Using Nonlocal PP in Opt: NonLocalECP
   Number of samples loaded to each thread : 1839 
  VMC Eavg = -4.6462e+01
  VMC Evar = 6.9845e-01
  Total weights = 1.0004e+06
  Execution time = 1.2070e+00
  </log>
</opt>
<opt stage="main" walkers="1000416">
  <log>

*****************************************
Building overlap and Hamiltonian matrices
*****************************************

Among totally 72 optimized parameters, largest LM parameter change : 9.5386e-02 at parameter 0

******************************************************************************
Init Cost =   6.9845e-01    New Cost =   7.0241e-01  Delta Cost =   3.9594e-03
******************************************************************************

The new set of parameters is valid. Updating the trial wave function!

*****************************************************************************
Applying the update for shift_i =   1.0000e-02     and shift_s =   3.9062e-03
*****************************************************************************
  Execution time = 5.1185e+00
  </log>
  <optVariables href="optJ12.s004.opt.xml">
 eSc_0                -1.353939e+00 1 1  ON 0
 eSc_1                -1.252979e+00 1 1  ON 1
 eSc_2                -9.935858e-01 1 1  ON 2
 eSc_3                -6.783703e-01 1 1  ON 3
 eSc_4                -3.908563e-01 1 1  ON 4
 eSc_5                -1.434501e-01 1 1  ON 5
 eSc_6                 6.918211e-02 1 1  ON 6
 eSc_7                 2.409934e-01 1 1  ON 7
 eSc_8                 3.761355e-01 1 1  ON 8
 eSc_9                 4.743952e-01 1 1  ON 9
eSc_10                 5.404987e-01 1 1  ON 10
eSc_11                 5.734358e-01 1 1  ON 11
eSc_12                 5.727513e-01 1 1  ON 12
eSc_13                 5.365684e-01 1 1  ON 13
eSc_14                 4.706014e-01 1 1  ON 14
eSc_15                 3.813789e-01 1 1  ON 15
eSc_16                 2.818410e-01 1 1  ON 16
eSc_17                 1.848455e-01 1 1  ON 17
eSc_18                 9.746431e-02 1 1  ON 18
eSc_19                 3.721799e-02 1 1  ON 19
eSc_20                 3.374914e-03 1 1  ON 20
eSc_21                -4.742339e-03 1 1  ON 21
eSc_22                -5.589801e-03 1 1  ON 22
eSc_23                -4.259932e-03 1 1  ON 23
  uu_0                 3.048668e-01 1 1  ON 24
  uu_1                 1.905783e-01 1 1  ON 25
  uu_2                 1.028433e-01 1 1  ON 26
  uu_3                 4.065478e-02 1 1  ON 27
  uu_4                -4.418660e-03 1 1  ON 28
  uu_5                -3.753408e-02 1 1  ON 29
  uu_6                -6.098198e-02 1 1  ON 30
  uu_7                -7.706911e-02 1 1  ON 31
  uu_8                -8.747268e-02 1 1  ON 32
  uu_9                -9.344782e-02 1 1  ON 33
 uu_10                -9.483118e-02 1 1  ON 34
 uu_11                -9.217944e-02 1 1  ON 35
 uu_12                -8.488618e-02 1 1  ON 36
 uu_13                -7.296748e-02 1 1  ON 37
 uu_14                -5.677838e-02 1 1  ON 38
 uu_15                -3.758499e-02 1 1  ON 39
 uu_16                -1.675948e-02 1 1  ON 40
 uu_17                 4.020737e-03 1 1  ON 41
 uu_18                 2.191390e-02 1 1  ON 42
 uu_19                 3.353742e-02 1 1  ON 43
 uu_20                 3.833092e-02 1 1  ON 44
 uu_21                 3.489666e-02 1 1  ON 45
 uu_22                 2.872175e-02 1 1  ON 46
 uu_23                 2.120783e-02 1 1  ON 47
  ud_0                 5.344720e-01 1 1  ON 48
  ud_1                 3.366225e-01 1 1  ON 49
  ud_2                 2.086160e-01 1 1  ON 50
  ud_3                 1.312406e-01 1 1  ON 51
  ud_4                 7.759759e-02 1 1  ON 52
  ud_5                 3.708315e-02 1 1  ON 53
  ud_6                 5.961187e-03 1 1  ON 54
  ud_7                -1.779350e-02 1 1  ON 55
  ud_8                -3.613137e-02 1 1  ON 56
  ud_9                -5.076327e-02 1 1  ON 57
 ud_10                -6.254337e-02 1 1  ON 58
 ud_11                -7.116107e-02 1 1  ON 59
 ud_12                -7.750729e-02 1 1  ON 60
 ud_13                -8.130838e-02 1 1  ON 61
 ud_14                -8.239363e-02 1 1  ON 62
 ud_15                -8.098986e-02 1 1  ON 63
 ud_16                -7.827485e-02 1 1  ON 64
 ud_17                -7.472927e-02 1 1  ON 65
 ud_18                -7.033009e-02 1 1  ON 66
 ud_19                -6.646411e-02 1 1  ON 67
 ud_20                -6.084944e-02 1 1  ON 68
 ud_21                -5.437071e-02 1 1  ON 69
 ud_22                -4.217058e-02 1 1  ON 70
 ud_23                -3.140249e-02 1 1  ON 71
  </optVariables>
   Restore the number of walkers to 1, removing 0 walkers.
</opt>
</optimization-report>
  QMC Execution time = 5.127 secs
Loop execution max-interations = 5
BRANCH resetRun
  Continue with the same input as the previous block.
 SimpleFixedNodeBranch::resetRun detected changes in <parameter>'s 
 BranchMode : 0000001100 0000001100
 iParam (old):                200                 1                 4                 0                 0                 0                 1                 0
 iParam (new):                200                 1                 4                 0                 0                 0                 1                 0
 vParam (old):                  1               0.1                 1                 1                 1                 1                 1                 1                 1                 0                 0                 1                10                 1                 1                 1                 1
 vParam (new):                  1               0.1                 1                 1                 1                 1                 1                 1                 1                 0                 0                 1                10                 1                 1                 1                 1

=========================================================
  Start QMCFixedSampleLinearOptimize
  File Root optJ12.s005 append = no 
=========================================================
  Skip QMCDriver::putQMCInfo 
  Resetting Properties of the walkers 1 x 13

=========================================================
  Start VMC
  File Root optJ12.s005 append = no 
=========================================================
Resetting walkers
  Using the current 1 walkers.
  Total number of walkers: 544
  Total weight: 544
  Resetting Properties of the walkers 1 x 13

<vmc function="put">
  qmc_counter=0  my_counter=0
  time step      = 1
  blocks         = 20
  steps          = 184
  substeps       = 2
  current        = 0
  target samples = 2000000
  walkers/mpi    = 1

  stepsbetweensamples = 1
  SpinMoves      = no
<parameter name="blocks" condition="int">20</parameter>
<parameter name="blocks_between_recompute" condition="int">0</parameter>
<parameter name="check_properties" condition="int">100</parameter>
<parameter name="checkproperties" condition="int">100</parameter>
<parameter name="current" condition="int">0</parameter>
<parameter name="dmcwalkersperthread" condition="real">3677</parameter>
<parameter name="maxcpusecs" condition="real">360000</parameter>
<parameter name="record_configs" condition="int">0</parameter>
<parameter name="record_walkers" condition="int">1</parameter>
<parameter name="recordconfigs" condition="int">0</parameter>
<parameter name="recordwalkers" condition="int">1</parameter>
<parameter name="rewind" condition="int">0</parameter>
<parameter name="samples" condition="real">2000000</parameter>
<parameter name="samplesperthread" condition="real">3677</parameter>
<parameter name="spinmass" condition="double">1</parameter>
<parameter name="spinmoves" condition="string">no</parameter>
<parameter name="steps" condition="int">184</parameter>
<parameter name="stepsbetweensamples" condition="int">1</parameter>
<parameter name="store_configs" condition="int">0</parameter>
<parameter name="storeconfigs" condition="int">0</parameter>
<parameter name="sub_steps" condition="int">2</parameter>
<parameter name="substeps" condition="int">2</parameter>
<parameter name="tau" condition="au">1</parameter>
<parameter name="time_step" condition="au">1</parameter>
<parameter name="timestep" condition="au">1</parameter>
<parameter name="use_drift" condition="string">yes</parameter>
<parameter name="usedrift" condition="string">yes</parameter>
<parameter name="walkers" condition="int">1</parameter>
<parameter name="warmup_steps" condition="int">0</parameter>
<parameter name="warmupsteps" condition="int">0</parameter>
  DumpConfig==false Nothing (configurations, state) will be saved.
  Walker Samples are dumped every 1 steps.
</vmc>
    Restarting, cummulative properties:
      energy     = -46.40639363
      variance   = 0
      r2accepted = 1e-10
      r2proposed = 1e-10
  Set drift_modifier UNR parameter a = 1
  Adding a default LocalEnergyEstimator for the MainEstimator 
 Using QMCCostFunction::QMCCostFunction
  Set drift_modifier UNR parameter a = 1.0000000000e+00
<optimization-report>
<vmc stage="main" blocks="20">
  Cannot make clones again. Use existing 1 clones
  Initial partition of walkers 0 1 

  Using Particle by Particle moves
  Walker moves with drift
  Total Sample Size   =2000288
  Walker distribution on root = 0 1 
  Using Locality Approximation
===== Memory Usage after the buffer registration =====
Available memory on node 0, free + buffers : 87907 MB
Memory footprint by rank 0 on node 0       : 103 MB
==================================================
  Anonymous Buffer size per walker : 6816 Bytes.
MEMORY increase 0 MB VMC::resetRun
====================================================
  SimpleFixedNodeBranch::finalize after a VMC block
    QMC counter        = 5
    time step          = 1
    reference energy   = -46.4443
    reference variance = 0.779016
====================================================
  Execution time = 3.7384e+00
</vmc>
<opt stage="setup">
  <log>
   Reading configurations from h5FileRoot optJ12.s005
  QMCCostFunction is created with 1 threads.
  Using Nonlocal PP in Opt: NonLocalECP
   Number of samples loaded to each thread : 3677 
  VMC Eavg = -4.6465e+01
  VMC Evar = 7.4179e-01
  Total weights = 2.0003e+06
  Execution time = 2.3991e+00
  </log>
</opt>
<opt stage="main" walkers="2000288">
  <log>

*****************************************
Building overlap and Hamiltonian matrices
*****************************************

Among totally 72 optimized parameters, largest LM parameter change : 7.2421e-02 at parameter 0

******************************************************************************
Init Cost =   7.4179e-01    New Cost =   7.4524e-01  Delta Cost =   3.4572e-03
******************************************************************************

The new set of parameters is valid. Updating the trial wave function!

*****************************************************************************
Applying the update for shift_i =   1.0000e-02     and shift_s =   2.5000e-01
*****************************************************************************
  Execution time = 9.0858e+00
  </log>
  <optVariables href="optJ12.s005.opt.xml">
 eSc_0                -1.426360e+00 1 1  ON 0
 eSc_1                -1.322568e+00 1 1  ON 1
 eSc_2                -1.060356e+00 1 1  ON 2
 eSc_3                -7.403733e-01 1 1  ON 3
 eSc_4                -4.465713e-01 1 1  ON 4
 eSc_5                -1.910450e-01 1 1  ON 5
 eSc_6                 3.247607e-02 1 1  ON 6
 eSc_7                 2.166599e-01 1 1  ON 7
 eSc_8                 3.644887e-01 1 1  ON 8
 eSc_9                 4.781734e-01 1 1  ON 9
eSc_10                 5.582069e-01 1 1  ON 10
eSc_11                 6.044413e-01 1 1  ON 11
eSc_12                 6.163679e-01 1 1  ON 12
eSc_13                 5.916023e-01 1 1  ON 13
eSc_14                 5.342784e-01 1 1  ON 14
eSc_15                 4.482711e-01 1 1  ON 15
eSc_16                 3.421595e-01 1 1  ON 16
eSc_17                 2.319963e-01 1 1  ON 17
eSc_18                 1.323796e-01 1 1  ON 18
eSc_19                 5.511180e-02 1 1  ON 19
eSc_20                 8.737241e-03 1 1  ON 20
eSc_21                -3.840861e-03 1 1  ON 21
eSc_22                -6.049016e-03 1 1  ON 22
eSc_23                -6.100668e-03 1 1  ON 23
  uu_0                 3.120434e-01 1 1  ON 24
  uu_1                 1.970746e-01 1 1  ON 25
  uu_2                 1.089725e-01 1 1  ON 26
  uu_3                 4.639252e-02 1 1  ON 27
  uu_4                 6.210421e-04 1 1  ON 28
  uu_5                -3.332680e-02 1 1  ON 29
  uu_6                -5.795415e-02 1 1  ON 30
  uu_7                -7.556058e-02 1 1  ON 31
  uu_8                -8.768133e-02 1 1  ON 32
  uu_9                -9.508111e-02 1 1  ON 33
 uu_10                -9.838169e-02 1 1  ON 34
 uu_11                -9.737284e-02 1 1  ON 35
 uu_12                -9.183164e-02 1 1  ON 36
 uu_13                -8.171252e-02 1 1  ON 37
 uu_14                -6.652426e-02 1 1  ON 38
 uu_15                -4.777450e-02 1 1  ON 39
 uu_16                -2.644786e-02 1 1  ON 40
 uu_17                -4.667941e-03 1 1  ON 41
 uu_18                 1.546727e-02 1 1  ON 42
 uu_19                 3.151024e-02 1 1  ON 43
 uu_20                 3.927885e-02 1 1  ON 44
 uu_21                 4.003277e-02 1 1  ON 45
 uu_22                 3.271912e-02 1 1  ON 46
 uu_23                 2.523049e-02 1 1  ON 47
  ud_0                 5.448149e-01 1 1  ON 48
  ud_1                 3.465704e-01 1 1  ON 49
  ud_2                 2.183140e-01 1 1  ON 50
  ud_3                 1.404584e-01 1 1  ON 51
  ud_4                 8.628295e-02 1 1  ON 52
  ud_5                 4.498811e-02 1 1  ON 53
  ud_6                 1.302630e-02 1 1  ON 54
  ud_7                -1.181310e-02 1 1  ON 55
  ud_8                -3.144823e-02 1 1  ON 56
  ud_9                -4.761616e-02 1 1  ON 57
 ud_10                -6.070792e-02 1 1  ON 58
 ud_11                -7.134854e-02 1 1  ON 59
 ud_12                -7.930778e-02 1 1  ON 60
 ud_13                -8.436541e-02 1 1  ON 61
 ud_14                -8.644841e-02 1 1  ON 62
 ud_15                -8.593392e-02 1 1  ON 63
 ud_16                -8.328283e-02 1 1  ON 64
 ud_17                -7.880083e-02 1 1  ON 65
 ud_18                -7.327466e-02 1 1  ON 66
 ud_19                -6.848138e-02 1 1  ON 67
 ud_20                -6.212109e-02 1 1  ON 68
 ud_21                -5.535189e-02 1 1  ON 69
 ud_22                -4.376461e-02 1 1  ON 70
 ud_23                -3.406372e-02 1 1  ON 71
  </optVariables>
   Restore the number of walkers to 1, removing 0 walkers.
</opt>
</optimization-report>
  QMC Execution time = 9.094 secs

=========================================================
  Start QMCFixedSampleLinearOptimize
  File Root optJ12.s006 append = no 
=========================================================
  Skip QMCDriver::putQMCInfo 
  Resetting Properties of the walkers 1 x 13

=========================================================
  Start VMC
  File Root optJ12.s006 append = no 
=========================================================
Using existing walkers 
  Resetting Properties of the walkers 1 x 13

<vmc function="put">
  qmc_counter=1  my_counter=0
  time step      = 1
  blocks         = 20
  steps          = 184
  substeps       = 2
  current        = 0
  target samples = 2e+06
  walkers/mpi    = 1

  stepsbetweensamples = 1
  SpinMoves      = no
<parameter name="blocks" condition="int">20</parameter>
<parameter name="blocks_between_recompute" condition="int">0</parameter>
<parameter name="check_properties" condition="int">100</parameter>
<parameter name="checkproperties" condition="int">100</parameter>
<parameter name="current" condition="int">0</parameter>
<parameter name="dmcwalkersperthread" condition="real">3677</parameter>
<parameter name="maxcpusecs" condition="real">3.6e+05</parameter>
<parameter name="record_configs" condition="int">0</parameter>
<parameter name="record_walkers" condition="int">1</parameter>
<parameter name="recordconfigs" condition="int">0</parameter>
<parameter name="recordwalkers" condition="int">1</parameter>
<parameter name="rewind" condition="int">0</parameter>
<parameter name="samples" condition="real">2e+06</parameter>
<parameter name="samplesperthread" condition="real">3677</parameter>
<parameter name="spinmass" condition="double">1</parameter>
<parameter name="spinmoves" condition="string">no</parameter>
<parameter name="steps" condition="int">184</parameter>
<parameter name="stepsbetweensamples" condition="int">1</parameter>
<parameter name="store_configs" condition="int">0</parameter>
<parameter name="storeconfigs" condition="int">0</parameter>
<parameter name="sub_steps" condition="int">2</parameter>
<parameter name="substeps" condition="int">2</parameter>
<parameter name="tau" condition="au">1</parameter>
<parameter name="time_step" condition="au">1</parameter>
<parameter name="timestep" condition="au">1</parameter>
<parameter name="use_drift" condition="string">yes</parameter>
<parameter name="usedrift" condition="string">yes</parameter>
<parameter name="walkers" condition="int">1</parameter>
<parameter name="warmup_steps" condition="int">0</parameter>
<parameter name="warmupsteps" condition="int">0</parameter>
  DumpConfig==false Nothing (configurations, state) will be saved.
  Walker Samples are dumped every 1 steps.
</vmc>
    Restarting, cummulative properties:
      energy     = -46.41
      variance   = 0
      r2accepted = 1e-10
      r2proposed = 1e-10
  Set drift_modifier UNR parameter a = 1
  Adding a default LocalEnergyEstimator for the MainEstimator 
 Using QMCCostFunction::QMCCostFunction
  Set drift_modifier UNR parameter a = 1.0000e+00
<optimization-report>
<vmc stage="main" blocks="20">
  Cannot make clones again. Use existing 1 clones
  Initial partition of walkers 0 1 

  Using Particle by Particle moves
  Walker moves with drift
  Total Sample Size   =2000288
  Walker distribution on root = 0 1 
  Using Locality Approximation
===== Memory Usage after the buffer registration =====
Available memory on node 0, free + buffers : 87497 MB
Memory footprint by rank 0 on node 0       : 109 MB
==================================================
  Anonymous Buffer size per walker : 6816 Bytes.
MEMORY increase 0 MB VMC::resetRun
====================================================
  SimpleFixedNodeBranch::finalize after a VMC block
    QMC counter        = 6
    time step          = 1
    reference energy   = -46.4551
    reference variance = 0.733226
====================================================
  Execution time = 3.8443e+00
</vmc>
<opt stage="setup">
  <log>
   Reading configurations from h5FileRoot optJ12.s006
  QMCCostFunction is created with 1 threads.
  Using Nonlocal PP in Opt: NonLocalECP
   Number of samples loaded to each thread : 3677 
  VMC Eavg = -4.6466e+01
  VMC Evar = 7.1344e-01
  Total weights = 2.0003e+06
  Execution time = 2.3897e+00
  </log>
</opt>
<opt stage="main" walkers="2000288">
  <log>

*****************************************
Building overlap and Hamiltonian matrices
*****************************************

Among totally 72 optimized parameters, largest LM parameter change : 6.3075e-02 at parameter 0

******************************************************************************
Init Cost =   7.1344e-01    New Cost =   7.1689e-01  Delta Cost =   3.4569e-03
******************************************************************************

The new set of parameters is valid. Updating the trial wave function!

*****************************************************************************
Applying the update for shift_i =   1.0000e-02     and shift_s =   6.2500e-02
*****************************************************************************
  Execution time = 9.0843e+00
  </log>
  <optVariables href="optJ12.s006.opt.xml">
 eSc_0                -1.489435e+00 1 1  ON 0
 eSc_1                -1.384589e+00 1 1  ON 1
 eSc_2                -1.120112e+00 1 1  ON 2
 eSc_3                -7.965001e-01 1 1  ON 3
 eSc_4                -4.973656e-01 1 1  ON 4
 eSc_5                -2.347891e-01 1 1  ON 5
 eSc_6                -2.362985e-03 1 1  ON 6
 eSc_7                 1.924355e-01 1 1  ON 7
 eSc_8                 3.513471e-01 1 1  ON 8
 eSc_9                 4.773598e-01 1 1  ON 9
eSc_10                 5.696264e-01 1 1  ON 10
eSc_11                 6.283055e-01 1 1  ON 11
eSc_12                 6.516203e-01 1 1  ON 12
eSc_13                 6.385514e-01 1 1  ON 13
eSc_14                 5.898754e-01 1 1  ON 14
eSc_15                 5.103760e-01 1 1  ON 15
eSc_16                 4.038669e-01 1 1  ON 16
eSc_17                 2.840191e-01 1 1  ON 17
eSc_18                 1.695410e-01 1 1  ON 18
eSc_19                 7.446938e-02 1 1  ON 19
eSc_20                 1.514574e-02 1 1  ON 20
eSc_21                -5.198191e-03 1 1  ON 21
eSc_22                -7.544694e-03 1 1  ON 22
eSc_23                -5.364635e-03 1 1  ON 23
  uu_0                 3.179197e-01 1 1  ON 24
  uu_1                 2.023841e-01 1 1  ON 25
  uu_2                 1.137066e-01 1 1  ON 26
  uu_3                 5.089885e-02 1 1  ON 27
  uu_4                 4.609471e-03 1 1  ON 28
  uu_5                -3.004087e-02 1 1  ON 29
  uu_6                -5.561616e-02 1 1  ON 30
  uu_7                -7.410485e-02 1 1  ON 31
  uu_8                -8.730249e-02 1 1  ON 32
  uu_9                -9.615443e-02 1 1  ON 33
 uu_10                -1.009541e-01 1 1  ON 34
 uu_11                -1.013413e-01 1 1  ON 35
 uu_12                -9.731449e-02 1 1  ON 36
 uu_13                -8.822587e-02 1 1  ON 37
 uu_14                -7.449130e-02 1 1  ON 38
 uu_15                -5.626851e-02 1 1  ON 39
 uu_16                -3.455111e-02 1 1  ON 40
 uu_17                -1.141295e-02 1 1  ON 41
 uu_18                 1.129464e-02 1 1  ON 42
 uu_19                 2.932943e-02 1 1  ON 43
 uu_20                 4.034903e-02 1 1  ON 44
 uu_21                 4.241871e-02 1 1  ON 45
 uu_22                 3.646973e-02 1 1  ON 46
 uu_23                 2.684041e-02 1 1  ON 47
  ud_0                 5.534163e-01 1 1  ON 48
  ud_1                 3.549608e-01 1 1  ON 49
  ud_2                 2.265104e-01 1 1  ON 50
  ud_3                 1.482945e-01 1 1  ON 51
  ud_4                 9.369223e-02 1 1  ON 52
  ud_5                 5.188143e-02 1 1  ON 53
  ud_6                 1.914570e-02 1 1  ON 54
  ud_7                -6.678643e-03 1 1  ON 55
  ud_8                -2.746192e-02 1 1  ON 56
  ud_9                -4.468772e-02 1 1  ON 57
 ud_10                -5.920535e-02 1 1  ON 58
 ud_11                -7.115208e-02 1 1  ON 59
 ud_12                -8.019152e-02 1 1  ON 60
 ud_13                -8.672861e-02 1 1  ON 61
 ud_14                -8.972506e-02 1 1  ON 62
 ud_15                -9.023918e-02 1 1  ON 63
 ud_16                -8.809417e-02 1 1  ON 64
 ud_17                -8.388710e-02 1 1  ON 65
 ud_18                -7.864545e-02 1 1  ON 66
 ud_19                -7.225937e-02 1 1  ON 67
 ud_20                -6.473069e-02 1 1  ON 68
 ud_21                -5.734292e-02 1 1  ON 69
 ud_22                -4.489785e-02 1 1  ON 70
 ud_23                -3.188651e-02 1 1  ON 71
  </optVariables>
   Restore the number of walkers to 1, removing 0 walkers.
</opt>
</optimization-report>
  QMC Execution time = 9.843 secs

=========================================================
  Start QMCFixedSampleLinearOptimize
  File Root optJ12.s007 append = no 
=========================================================
  Skip QMCDriver::putQMCInfo 
  Resetting Properties of the walkers 1 x 13

=========================================================
  Start VMC
  File Root optJ12.s007 append = no 
=========================================================
Using existing walkers 
  Resetting Properties of the walkers 1 x 13

<vmc function="put">
  qmc_counter=2  my_counter=0
  time step      = 1
  blocks         = 20
  steps          = 184
  substeps       = 2
  current        = 0
  target samples = 2e+06
  walkers/mpi    = 1

  stepsbetweensamples = 1
  SpinMoves      = no
<parameter name="blocks" condition="int">20</parameter>
<parameter name="blocks_between_recompute" condition="int">0</parameter>
<parameter name="check_properties" condition="int">100</parameter>
<parameter name="checkproperties" condition="int">100</parameter>
<parameter name="current" condition="int">0</parameter>
<parameter name="dmcwalkersperthread" condition="real">3677</parameter>
<parameter name="maxcpusecs" condition="real">3.6e+05</parameter>
<parameter name="record_configs" condition="int">0</parameter>
<parameter name="record_walkers" condition="int">1</parameter>
<parameter name="recordconfigs" condition="int">0</parameter>
<parameter name="recordwalkers" condition="int">1</parameter>
<parameter name="rewind" condition="int">0</parameter>
<parameter name="samples" condition="real">2e+06</parameter>
<parameter name="samplesperthread" condition="real">3677</parameter>
<parameter name="spinmass" condition="double">1</parameter>
<parameter name="spinmoves" condition="string">no</parameter>
<parameter name="steps" condition="int">184</parameter>
<parameter name="stepsbetweensamples" condition="int">1</parameter>
<parameter name="store_configs" condition="int">0</parameter>
<parameter name="storeconfigs" condition="int">0</parameter>
<parameter name="sub_steps" condition="int">2</parameter>
<parameter name="substeps" condition="int">2</parameter>
<parameter name="tau" condition="au">1</parameter>
<parameter name="time_step" condition="au">1</parameter>
<parameter name="timestep" condition="au">1</parameter>
<parameter name="use_drift" condition="string">yes</parameter>
<parameter name="usedrift" condition="string">yes</parameter>
<parameter name="walkers" condition="int">1</parameter>
<parameter name="warmup_steps" condition="int">0</parameter>
<parameter name="warmupsteps" condition="int">0</parameter>
  DumpConfig==false Nothing (configurations, state) will be saved.
  Walker Samples are dumped every 1 steps.
</vmc>
    Restarting, cummulative properties:
      energy     = -46.42
      variance   = 0
      r2accepted = 1e-10
      r2proposed = 1e-10
  Set drift_modifier UNR parameter a = 1
  Adding a default LocalEnergyEstimator for the MainEstimator 
 Using QMCCostFunction::QMCCostFunction
  Set drift_modifier UNR parameter a = 1.0000e+00
<optimization-report>
<vmc stage="main" blocks="20">
  Cannot make clones again. Use existing 1 clones
  Initial partition of walkers 0 1 

  Using Particle by Particle moves
  Walker moves with drift
  Total Sample Size   =2000288
  Walker distribution on root = 0 1 
  Using Locality Approximation
===== Memory Usage after the buffer registration =====
Available memory on node 0, free + buffers : 87500 MB
Memory footprint by rank 0 on node 0       : 111 MB
==================================================
  Anonymous Buffer size per walker : 6816 Bytes.
MEMORY increase 0 MB VMC::resetRun
[...]
  uu_0                 3.347672e-01 1 1  ON 24
  uu_1                 2.193795e-01 1 1  ON 25
  uu_2                 1.302245e-01 1 1  ON 26
  uu_3                 6.626022e-02 1 1  ON 27
  uu_4                 1.858780e-02 1 1  ON 28
  uu_5                -1.774629e-02 1 1  ON 29
  uu_6                -4.560471e-02 1 1  ON 30
  uu_7                -6.708210e-02 1 1  ON 31
  uu_8                -8.392746e-02 1 1  ON 32
  uu_9                -9.681713e-02 1 1  ON 33
 uu_10                -1.061712e-01 1 1  ON 34
 uu_11                -1.117113e-01 1 1  ON 35
 uu_12                -1.136245e-01 1 1  ON 36
 uu_13                -1.111787e-01 1 1  ON 37
 uu_14                -1.033764e-01 1 1  ON 38
 uu_15                -9.044023e-02 1 1  ON 39
 uu_16                -7.164736e-02 1 1  ON 40
 uu_17                -4.746982e-02 1 1  ON 41
 uu_18                -2.101345e-02 1 1  ON 42
 uu_19                 6.144995e-03 1 1  ON 43
 uu_20                 2.914544e-02 1 1  ON 44
 uu_21                 4.469265e-02 1 1  ON 45
 uu_22                 4.558107e-02 1 1  ON 46
 uu_23                 3.778318e-02 1 1  ON 47
  ud_0                 5.920100e-01 1 1  ON 48
  ud_1                 3.936957e-01 1 1  ON 49
  ud_2                 2.648155e-01 1 1  ON 50
  ud_3                 1.857140e-01 1 1  ON 51
  ud_4                 1.298184e-01 1 1  ON 52
  ud_5                 8.621009e-02 1 1  ON 53
  ud_6                 5.125884e-02 1 1  ON 54
  ud_7                 2.281835e-02 1 1  ON 55
  ud_8                -1.136661e-03 1 1  ON 56
  ud_9                -2.208271e-02 1 1  ON 57
 ud_10                -4.084105e-02 1 1  ON 58
 ud_11                -5.756925e-02 1 1  ON 59
 ud_12                -7.220943e-02 1 1  ON 60
 ud_13                -8.411201e-02 1 1  ON 61
 ud_14                -9.328294e-02 1 1  ON 62
 ud_15                -9.871618e-02 1 1  ON 63
 ud_16                -9.989580e-02 1 1  ON 64
 ud_17                -9.648935e-02 1 1  ON 65
 ud_18                -8.957441e-02 1 1  ON 66
 ud_19                -7.990861e-02 1 1  ON 67
 ud_20                -6.884833e-02 1 1  ON 68
 ud_21                -5.743133e-02 1 1  ON 69
 ud_22                -4.291397e-02 1 1  ON 70
 ud_23                -3.226416e-02 1 1  ON 71
  </optVariables>
   Restore the number of walkers to 1, removing 0 walkers.
</opt>
</optimization-report>
  QMC Execution time = 18.75 secs

=========================================================
  Start QMCFixedSampleLinearOptimize
  File Root optJ12.s013 append = no 
=========================================================
  Skip QMCDriver::putQMCInfo 
  Resetting Properties of the walkers 1 x 13

=========================================================
  Start VMC
  File Root optJ12.s013 append = no 
=========================================================
Using existing walkers 
  Resetting Properties of the walkers 1 x 13

<vmc function="put">
  qmc_counter=3  my_counter=0
  time step      = 1
  blocks         = 20
  steps          = 368
  substeps       = 2
  current        = 0
  target samples = 4e+06
  walkers/mpi    = 1

  stepsbetweensamples = 1
  SpinMoves      = no
<parameter name="blocks" condition="int">20</parameter>
<parameter name="blocks_between_recompute" condition="int">0</parameter>
<parameter name="check_properties" condition="int">100</parameter>
<parameter name="checkproperties" condition="int">100</parameter>
<parameter name="current" condition="int">0</parameter>
<parameter name="dmcwalkersperthread" condition="real">7353</parameter>
<parameter name="maxcpusecs" condition="real">3.6e+05</parameter>
<parameter name="record_configs" condition="int">0</parameter>
<parameter name="record_walkers" condition="int">1</parameter>
<parameter name="recordconfigs" condition="int">0</parameter>
<parameter name="recordwalkers" condition="int">1</parameter>
<parameter name="rewind" condition="int">0</parameter>
<parameter name="samples" condition="real">4e+06</parameter>
<parameter name="samplesperthread" condition="real">7353</parameter>
<parameter name="spinmass" condition="double">1</parameter>
<parameter name="spinmoves" condition="string">no</parameter>
<parameter name="steps" condition="int">368</parameter>
<parameter name="stepsbetweensamples" condition="int">1</parameter>
<parameter name="store_configs" condition="int">0</parameter>
<parameter name="storeconfigs" condition="int">0</parameter>
<parameter name="sub_steps" condition="int">2</parameter>
<parameter name="substeps" condition="int">2</parameter>
<parameter name="tau" condition="au">1</parameter>
<parameter name="time_step" condition="au">1</parameter>
<parameter name="timestep" condition="au">1</parameter>
<parameter name="use_drift" condition="string">yes</parameter>
<parameter name="usedrift" condition="string">yes</parameter>
<parameter name="walkers" condition="int">1</parameter>
<parameter name="warmup_steps" condition="int">0</parameter>
<parameter name="warmupsteps" condition="int">0</parameter>
  DumpConfig==false Nothing (configurations, state) will be saved.
  Walker Samples are dumped every 1 steps.
</vmc>
    Restarting, cummulative properties:
      energy     = -46.44
      variance   = 0
      r2accepted = 1e-10
      r2proposed = 1e-10
  Set drift_modifier UNR parameter a = 1
  Adding a default LocalEnergyEstimator for the MainEstimator 
 Using QMCCostFunction::QMCCostFunction
  Set drift_modifier UNR parameter a = 1.0000e+00
<optimization-report>
<vmc stage="main" blocks="20">
  Cannot make clones again. Use existing 1 clones
  Initial partition of walkers 0 1 

  Using Particle by Particle moves
  Walker moves with drift
  Total Sample Size   =4000032
  Walker distribution on root = 0 1 
  Using Locality Approximation
===== Memory Usage after the buffer registration =====
Available memory on node 0, free + buffers : 86700 MB
Memory footprint by rank 0 on node 0       : 127 MB
==================================================
  Anonymous Buffer size per walker : 6816 Bytes.
MEMORY increase 0 MB VMC::resetRun
====================================================
  SimpleFixedNodeBranch::finalize after a VMC block
    QMC counter        = 13
    time step          = 1
    reference energy   = -46.406
    reference variance = 0.613718
====================================================
  Execution time = 7.6315e+00
</vmc>
<opt stage="setup">
  <log>
   Reading configurations from h5FileRoot optJ12.s013
  QMCCostFunction is created with 1 threads.
  Using Nonlocal PP in Opt: NonLocalECP
   Number of samples loaded to each thread : 7353 
  VMC Eavg = -4.6469e+01
  VMC Evar = 7.3367e-01
  Total weights = 4.0000e+06
  Execution time = 4.8572e+00
  </log>
</opt>
<opt stage="main" walkers="4000032">
  <log>

*****************************************
Building overlap and Hamiltonian matrices
*****************************************

Among totally 72 optimized parameters, largest LM parameter change : 3.7047e-02 at parameter 17

******************************************************************************
Init Cost =  -4.1749e+01    New Cost =  -4.1749e+01  Delta Cost =  -9.4846e-05
******************************************************************************

The new set of parameters is valid. Updating the trial wave function!

*****************************************************************************
Applying the update for shift_i =   1.0000e-02     and shift_s =   3.9062e-03
*****************************************************************************
  Execution time = 1.8119e+01
  </log>
  <optVariables href="optJ12.s013.opt.xml">
 eSc_0                -1.753264e+00 1 1  ON 0
 eSc_1                -1.644511e+00 1 1  ON 1
 eSc_2                -1.373192e+00 1 1  ON 2
 eSc_3                -1.037919e+00 1 1  ON 3
 eSc_4                -7.230613e-01 1 1  ON 4
 eSc_5                -4.392433e-01 1 1  ON 5
 eSc_6                -1.804172e-01 1 1  ON 6
 eSc_7                 4.565157e-02 1 1  ON 7
 eSc_8                 2.424755e-01 1 1  ON 8
 eSc_9                 4.112676e-01 1 1  ON 9
eSc_10                 5.538628e-01 1 1  ON 10
eSc_11                 6.691492e-01 1 1  ON 11
eSc_12                 7.545446e-01 1 1  ON 12
eSc_13                 8.043648e-01 1 1  ON 13
eSc_14                 8.150347e-01 1 1  ON 14
eSc_15                 7.824538e-01 1 1  ON 15
eSc_16                 7.009337e-01 1 1  ON 16
eSc_17                 5.772010e-01 1 1  ON 17
eSc_18                 4.267487e-01 1 1  ON 18
eSc_19                 2.675396e-01 1 1  ON 19
eSc_20                 1.247185e-01 1 1  ON 20
eSc_21                 2.711356e-02 1 1  ON 21
eSc_22                -1.373238e-02 1 1  ON 22
eSc_23                -1.811007e-02 1 1  ON 23
  uu_0                 3.354922e-01 1 1  ON 24
  uu_1                 2.201990e-01 1 1  ON 25
  uu_2                 1.308748e-01 1 1  ON 26
  uu_3                 6.682296e-02 1 1  ON 27
  uu_4                 1.895930e-02 1 1  ON 28
  uu_5                -1.762882e-02 1 1  ON 29
  uu_6                -4.566059e-02 1 1  ON 30
  uu_7                -6.737594e-02 1 1  ON 31
  uu_8                -8.438319e-02 1 1  ON 32
  uu_9                -9.773964e-02 1 1  ON 33
 uu_10                -1.074434e-01 1 1  ON 34
 uu_11                -1.136733e-01 1 1  ON 35
 uu_12                -1.160277e-01 1 1  ON 36
 uu_13                -1.141506e-01 1 1  ON 37
 uu_14                -1.072094e-01 1 1  ON 38
 uu_15                -9.438779e-02 1 1  ON 39
 uu_16                -7.592315e-02 1 1  ON 40
 uu_17                -5.211111e-02 1 1  ON 41
 uu_18                -2.455762e-02 1 1  ON 42
 uu_19                 2.847640e-03 1 1  ON 43
 uu_20                 2.642732e-02 1 1  ON 44
 uu_21                 4.216600e-02 1 1  ON 45
 uu_22                 4.512584e-02 1 1  ON 46
 uu_23                 3.957252e-02 1 1  ON 47
  ud_0                 5.961794e-01 1 1  ON 48
  ud_1                 3.977019e-01 1 1  ON 49
  ud_2                 2.687183e-01 1 1  ON 50
  ud_3                 1.894913e-01 1 1  ON 51
  ud_4                 1.335187e-01 1 1  ON 52
  ud_5                 8.993151e-02 1 1  ON 53
  ud_6                 5.476694e-02 1 1  ON 54
  ud_7                 2.612125e-02 1 1  ON 55
  ud_8                 1.826833e-03 1 1  ON 56
  ud_9                -1.953250e-02 1 1  ON 57
 ud_10                -3.869689e-02 1 1  ON 58
 ud_11                -5.578515e-02 1 1  ON 59
 ud_12                -7.067429e-02 1 1  ON 60
 ud_13                -8.345384e-02 1 1  ON 61
 ud_14                -9.274960e-02 1 1  ON 62
 ud_15                -9.835086e-02 1 1  ON 63
 ud_16                -9.987858e-02 1 1  ON 64
 ud_17                -9.737469e-02 1 1  ON 65
 ud_18                -9.021092e-02 1 1  ON 66
 ud_19                -8.094826e-02 1 1  ON 67
 ud_20                -6.974644e-02 1 1  ON 68
 ud_21                -5.841996e-02 1 1  ON 69
 ud_22                -4.428397e-02 1 1  ON 70
 ud_23                -3.322183e-02 1 1  ON 71
  </optVariables>
   Restore the number of walkers to 1, removing 0 walkers.
</opt>
</optimization-report>
  QMC Execution time = 18.79 secs

=========================================================
  Start QMCFixedSampleLinearOptimize
  File Root optJ12.s014 append = no 
=========================================================
  Skip QMCDriver::putQMCInfo 
  Resetting Properties of the walkers 1 x 13

=========================================================
  Start VMC
  File Root optJ12.s014 append = no 
=========================================================
Using existing walkers 
  Resetting Properties of the walkers 1 x 13

<vmc function="put">
  qmc_counter=4  my_counter=0
  time step      = 1
  blocks         = 20
  steps          = 368
  substeps       = 2
  current        = 0
  target samples = 4e+06
  walkers/mpi    = 1

  stepsbetweensamples = 1
  SpinMoves      = no
<parameter name="blocks" condition="int">20</parameter>
<parameter name="blocks_between_recompute" condition="int">0</parameter>
<parameter name="check_properties" condition="int">100</parameter>
<parameter name="checkproperties" condition="int">100</parameter>
<parameter name="current" condition="int">0</parameter>
<parameter name="dmcwalkersperthread" condition="real">7353</parameter>
<parameter name="maxcpusecs" condition="real">3.6e+05</parameter>
<parameter name="record_configs" condition="int">0</parameter>
<parameter name="record_walkers" condition="int">1</parameter>
<parameter name="recordconfigs" condition="int">0</parameter>
<parameter name="recordwalkers" condition="int">1</parameter>
<parameter name="rewind" condition="int">0</parameter>
<parameter name="samples" condition="real">4e+06</parameter>
<parameter name="samplesperthread" condition="real">7353</parameter>
<parameter name="spinmass" condition="double">1</parameter>
<parameter name="spinmoves" condition="string">no</parameter>
<parameter name="steps" condition="int">368</parameter>
<parameter name="stepsbetweensamples" condition="int">1</parameter>
<parameter name="store_configs" condition="int">0</parameter>
<parameter name="storeconfigs" condition="int">0</parameter>
<parameter name="sub_steps" condition="int">2</parameter>
<parameter name="substeps" condition="int">2</parameter>
<parameter name="tau" condition="au">1</parameter>
<parameter name="time_step" condition="au">1</parameter>
<parameter name="timestep" condition="au">1</parameter>
<parameter name="use_drift" condition="string">yes</parameter>
<parameter name="usedrift" condition="string">yes</parameter>
<parameter name="walkers" condition="int">1</parameter>
<parameter name="warmup_steps" condition="int">0</parameter>
<parameter name="warmupsteps" condition="int">0</parameter>
  DumpConfig==false Nothing (configurations, state) will be saved.
  Walker Samples are dumped every 1 steps.
</vmc>
    Restarting, cummulative properties:
      energy     = -46.44
      variance   = 0
      r2accepted = 1e-10
      r2proposed = 1e-10
  Set drift_modifier UNR parameter a = 1
  Adding a default LocalEnergyEstimator for the MainEstimator 
 Using QMCCostFunction::QMCCostFunction
  Set drift_modifier UNR parameter a = 1.0000e+00
<optimization-report>
<vmc stage="main" blocks="20">
  Cannot make clones again. Use existing 1 clones
  Initial partition of walkers 0 1 

  Using Particle by Particle moves
  Walker moves with drift
  Total Sample Size   =4000032
  Walker distribution on root = 0 1 
  Using Locality Approximation
===== Memory Usage after the buffer registration =====
Available memory on node 0, free + buffers : 86665 MB
Memory footprint by rank 0 on node 0       : 127 MB
==================================================
  Anonymous Buffer size per walker : 6816 Bytes.
MEMORY increase 0 MB VMC::resetRun
====================================================
  SimpleFixedNodeBranch::finalize after a VMC block
    QMC counter        = 14
    time step          = 1
    reference energy   = -46.437
    reference variance = 1.58095
====================================================
  Execution time = 7.4306e+00
</vmc>
<opt stage="setup">
  <log>
   Reading configurations from h5FileRoot optJ12.s014
  QMCCostFunction is created with 1 threads.
  Using Nonlocal PP in Opt: NonLocalECP
   Number of samples loaded to each thread : 7353 
  VMC Eavg = -4.6470e+01
  VMC Evar = 7.4787e-01
  Total weights = 4.0000e+06
  Execution time = 4.7476e+00
  </log>
</opt>
<opt stage="main" walkers="4000032">
  <log>

*****************************************
Building overlap and Hamiltonian matrices
*****************************************

Among totally 72 optimized parameters, largest LM parameter change : 3.2354e-02 at parameter 17

******************************************************************************
Init Cost =  -4.1748e+01    New Cost =  -4.1749e+01  Delta Cost =  -1.4238e-04
******************************************************************************

The new set of parameters is valid. Updating the trial wave function!

*****************************************************************************
Applying the update for shift_i =   1.0000e-02     and shift_s =   3.9062e-03
*****************************************************************************
  Execution time = 1.7944e+01
  </log>
  <optVariables href="optJ12.s014.opt.xml">
 eSc_0                -1.778982e+00 1 1  ON 0
 eSc_1                -1.669608e+00 1 1  ON 1
 eSc_2                -1.397873e+00 1 1  ON 2
 eSc_3                -1.061561e+00 1 1  ON 3
 eSc_4                -7.457433e-01 1 1  ON 4
 eSc_5                -4.605543e-01 1 1  ON 5
 eSc_6                -1.998953e-01 1 1  ON 6
 eSc_7                 2.894854e-02 1 1  ON 7
 eSc_8                 2.286165e-01 1 1  ON 8
 eSc_9                 4.012205e-01 1 1  ON 9
eSc_10                 5.492691e-01 1 1  ON 10
eSc_11                 6.702567e-01 1 1  ON 11
eSc_12                 7.610512e-01 1 1  ON 12
eSc_13                 8.161995e-01 1 1  ON 13
eSc_14                 8.325988e-01 1 1  ON 14
eSc_15                 8.060023e-01 1 1  ON 15
eSc_16                 7.297150e-01 1 1  ON 16
eSc_17                 6.095555e-01 1 1  ON 17
eSc_18                 4.587119e-01 1 1  ON 18
eSc_19                 2.948907e-01 1 1  ON 19
eSc_20                 1.429312e-01 1 1  ON 20
eSc_21                 3.634543e-02 1 1  ON 21
eSc_22                -1.280937e-02 1 1  ON 22
eSc_23                -1.930640e-02 1 1  ON 23
  uu_0                 3.367257e-01 1 1  ON 24
  uu_1                 2.213155e-01 1 1  ON 25
  uu_2                 1.320176e-01 1 1  ON 26
  uu_3                 6.797351e-02 1 1  ON 27
  uu_4                 2.005663e-02 1 1  ON 28
  uu_5                -1.647665e-02 1 1  ON 29
  uu_6                -4.465349e-02 1 1  ON 30
  uu_7                -6.644510e-02 1 1  ON 31
  uu_8                -8.377374e-02 1 1  ON 32
  uu_9                -9.743726e-02 1 1  ON 33
 uu_10                -1.075596e-01 1 1  ON 34
 uu_11                -1.142685e-01 1 1  ON 35
 uu_12                -1.173480e-01 1 1  ON 36
 uu_13                -1.161019e-01 1 1  ON 37
 uu_14                -1.102778e-01 1 1  ON 38
 uu_15                -9.889073e-02 1 1  ON 39
 uu_16                -8.185545e-02 1 1  ON 40
 uu_17                -5.910976e-02 1 1  ON 41
 uu_18                -3.181062e-02 1 1  ON 42
 uu_19                -2.783119e-03 1 1  ON 43
 uu_20                 2.236041e-02 1 1  ON 44
 uu_21                 4.052361e-02 1 1  ON 45
 uu_22                 4.361706e-02 1 1  ON 46
 uu_23                 3.867993e-02 1 1  ON 47
  ud_0                 6.007488e-01 1 1  ON 48
  ud_1                 4.023726e-01 1 1  ON 49
  ud_2                 2.733096e-01 1 1  ON 50
  ud_3                 1.940429e-01 1 1  ON 51
  ud_4                 1.379360e-01 1 1  ON 52
  ud_5                 9.408359e-02 1 1  ON 53
  ud_6                 5.881330e-02 1 1  ON 54
  ud_7                 2.989158e-02 1 1  ON 55
  ud_8                 5.408174e-03 1 1  ON 56
  ud_9                -1.626050e-02 1 1  ON 57
 ud_10                -3.588791e-02 1 1  ON 58
 ud_11                -5.362266e-02 1 1  ON 59
 ud_12                -6.916083e-02 1 1  ON 60
 ud_13                -8.246066e-02 1 1  ON 61
 ud_14                -9.253815e-02 1 1  ON 62
 ud_15                -9.927526e-02 1 1  ON 63
 ud_16                -1.015053e-01 1 1  ON 64
 ud_17                -9.923025e-02 1 1  ON 65
 ud_18                -9.320296e-02 1 1  ON 66
 ud_19                -8.324440e-02 1 1  ON 67
 ud_20                -7.138389e-02 1 1  ON 68
 ud_21                -5.878054e-02 1 1  ON 69
 ud_22                -4.368131e-02 1 1  ON 70
 ud_23                -3.180457e-02 1 1  ON 71
  </optVariables>
   Restore the number of walkers to 1, removing 0 walkers.
</opt>
</optimization-report>
  QMC Execution time = 17.95 secs
  Total Execution time = 169.3 secs

=========================================================
  A new xml input file : optJ12.s014.cont.xml
