#INFO: **** input file is /home/abenali/Work/WorkShop/qmcpack_workshop_2021/qmc_workshop_2021/week4_molecules/03_qmc_ccECP/runs/O2/Dist_1.1/SCF/scf.py ****

#! /usr/bin/env python3

import numpy as np
from numpy import array

### generated pyscfimport text ###
from pyscf import df, scf, dft
### end generated pyscfimport text ###





### generated system text ###
from pyscf import gto as gto_loc
mol = gto_loc.Mole()
mol.verbose  = 5
mol.atom     = '''
               O    0.00000000   0.00000000   0.00000000
               O    0.00000000   0.00000000   1.10000000
               '''
mol.basis    = 'ccecp-ccpvtz'
mol.unit     = 'A'
mol.ecp      = 'ccecp'
mol.charge   = 0
mol.spin     = 2
mol.symmetry = True
mol.build()
### end generated system text ###




### generated calculation text ###
mf = scf.ROKS(mol).density_fit()
mf.max_cycle=200
mf.level_shift=0.0
mf.xc          = 'SCAN'
mf.tol         = '1e-10'
e_scf = mf.kernel()
### end generated calculation text ###



### generated conversion text ###
from PyscfToQmcpack import savetoqmcpack
savetoqmcpack(mol,mf,'scf')
### end generated conversion text ###

#INFO: ******************** input file end ********************


System: uname_result(system='Linux', node='abenali', release='5.11.0-38-generic', version='#42~20.04.1-Ubuntu SMP Tue Sep 28 20:41:07 UTC 2021', machine='x86_64', processor='x86_64')  Threads 1
Python 3.7.11 (default, Sep  9 2021, 02:06:38) 
[GCC 9.3.0]
numpy 1.20.3  scipy 1.6.2
Date: Mon Oct 25 18:09:01 2021
PySCF version 2.0.0a
PySCF path  /home/abenali/Work/src/pyscf
GIT HEAD (branch master) 3e8ba375fd4229f000289589fd02193633380853

[CONFIG] conf_file None
[INPUT] verbose = 5
[INPUT] max_memory = 4000 
[INPUT] num. atoms = 2
[INPUT] num. electrons = 12
[INPUT] charge = 0
[INPUT] spin (= nelec alpha-beta = 2S) = 2
[INPUT] symmetry True subgroup None
[INPUT] Mole.unit = A
[INPUT]  1 O      0.000000000000   0.000000000000   0.000000000000 AA    0.000000000000   0.000000000000   0.000000000000 Bohr
[INPUT]  2 O      0.000000000000   0.000000000000   1.100000000000 AA    0.000000000000   0.000000000000   2.078698737022 Bohr
[INPUT] ---------------- BASIS SET ---------------- 
[INPUT] l, kappa, [nprim/nctr], expnt,             c_1 c_2 ...
[INPUT] O
[INPUT] 0    0    [9    /1   ]  54.775216         -0.0012444
                                25.616801         0.010733
                                11.980245         0.0018889
                                6.992317          -0.1742537
                                2.620277          0.0017622
                                1.225429          0.3161846
                                0.577797          0.4512023
                                0.268022          0.3121534
                                0.125346          0.0511167
[INPUT] 0    0    [1    /1   ]  1.686633             1
[INPUT] 0    0    [1    /1   ]  0.237997             1
[INPUT] 1    0    [9    /1   ]  22.217266         0.0104866
                                10.74755          0.0366435
                                5.315785          0.0803674
                                2.660761          0.162701
                                1.331816          0.2377791
                                0.678626          0.2811422
                                0.333673          0.2643189
                                0.167017          0.1466014
                                0.083598          0.0458145
[INPUT] 1    0    [1    /1   ]  0.600621             1
[INPUT] 1    0    [1    /1   ]  0.184696             1
[INPUT] 2    0    [1    /1   ]  2.404278             1
[INPUT] 2    0    [1    /1   ]  0.66934              1
[INPUT] 3    0    [1    /1   ]  1.423104             1

nuclear repulsion = 17.3185269028364
point group symmetry = Dooh
num. orbitals of irrep A1g = 9
num. orbitals of irrep E1gx = 6
num. orbitals of irrep E1gy = 6
num. orbitals of irrep A1u = 9
num. orbitals of irrep E1uy = 6
num. orbitals of irrep E1ux = 6
num. orbitals of irrep E2gx = 3
num. orbitals of irrep E2gy = 3
num. orbitals of irrep E3gx = 1
num. orbitals of irrep E3gy = 1
num. orbitals of irrep E2uy = 3
num. orbitals of irrep E2ux = 3
num. orbitals of irrep E3uy = 1
num. orbitals of irrep E3ux = 1
number of shells = 18
number of NR pGTOs = 122
number of NR cGTOs = 58
basis = ccecp-ccpvtz
ecp = ccecp
CPU time:         0.27


******** <class 'pyscf.df.df_jk.density_fit.<locals>.DFHF'> ********
method = DFHF-SymAdaptedROKS-SymAdaptedROHF-ROHF-RHF
initial guess = minao
damping factor = 0
level_shift factor = 0.0
DIIS = <class 'pyscf.scf.diis.CDIIS'>
diis_start_cycle = 1
diis_space = 8
SCF conv_tol = 1e-09
SCF conv_tol_grad = None
SCF max_cycles = 200
direct_scf = True
direct_scf_tol = 1e-13
chkfile to save SCF result = /home/abenali/Work/WorkShop/qmcpack_workshop_2021/qmc_workshop_2021/week4_molecules/03_qmc_ccECP/runs/O2/Dist_1.1/SCF/tmp5whsk7fs
max_memory 4000 MB (current use 113 MB)
num. doubly occ = 5  num. singly occ = 2
XC library pyscf.dft.libxc version 5.1.5
    S. Lehtola, C. Steigemann, M. J. Oliveira, and M. A. Marques, SoftwareX 7, 1 (2018)
XC functionals = SCAN
    J. Sun, A. Ruzsinszky, and J. P. Perdew, Phys. Rev. Lett. 115, 036402 (2015)
    J. Sun, A. Ruzsinszky, and J. P. Perdew, Phys. Rev. Lett. 115, 036402 (2015)
radial grids: 
    Treutler-Ahlrichs [JCP 102, 346 (1995); DOI:10.1063/1.469408] (M4) radial grids
    
becke partition: Becke, JCP 88, 2547 (1988); DOI:10.1063/1.454033
pruning grids: <function nwchem_prune at 0x7fa8e651bdd0>
grids dens level: 3
symmetrized grids: True
atomic radii adjust function: <function treutler_atomic_radii_adjust at 0x7fa8e6524290>
small_rho_cutoff = 1e-07
Freeze 0 electrons in irreps []
    12 free electrons in irreps A1g E1gx E1gy A1u E1uy E1ux E2gx E2gy E3gx E3gy E2uy E2ux E3uy E3ux
Set gradient conv threshold to 3.16228e-05
atom O rad-grids = 75, ang-grids = [ 50  50  50  50  50  50  50  50  50  50  50  50  50  50  50  50  50  50
  50  50  50  50  86  86  86  86  86  86  86  86  86 266 266 266 266 266
 266 266 302 302 302 302 302 302 302 302 302 302 302 302 302 302 302 302
 302 302 302 266 266 266 266 266 266 266 266 266 266 266 266 266 266 266
 266 266 266]
tot grids = 28524
Drop grids 2382
    CPU time for setting up grids      0.03 sec, wall time      0.03 sec
nelec by numeric integration = [5.99999984 5.99999984]
    CPU time for vxc      0.31 sec, wall time      0.31 sec
Even tempered Gaussians are generated as DF auxbasis for  O
  ETB auxbasis for O  [[0, [64.177152, 1]], [0, [32.088576, 1]], [0, [16.044288, 1]], [0, [8.022144, 1]], [0, [4.011072, 1]], [0, [2.005536, 1]], [0, [1.002768, 1]], [0, [0.501384, 1]], [0, [0.250692, 1]], [1, [52.41108427692326, 1]], [1, [26.20554213846163, 1]], [1, [13.102771069230815, 1]], [1, [6.551385534615408, 1]], [1, [3.275692767307704, 1]], [1, [1.637846383653852, 1]], [1, [0.818923191826926, 1]], [1, [0.409461595913463, 1]], [1, [0.2047307979567315, 1]], [2, [42.802176, 1]], [2, [21.401088, 1]], [2, [10.700544, 1]], [2, [5.350272, 1]], [2, [2.675136, 1]], [2, [1.337568, 1]], [2, [0.668784, 1]], [2, [0.334392, 1]], [2, [0.167196, 1]], [3, [7.569571782318998, 1]], [3, [3.784785891159499, 1]], [3, [1.8923929455797495, 1]], [3, [0.9461964727898747, 1]], [3, [0.47309823639493737, 1]], [4, [5.35472, 1]], [4, [2.67736, 1]], [4, [1.33868, 1]]]
num shells = 70, num cGTOs = 286
    CPU time for df-vj      0.05 sec, wall time      0.05 sec
E1 = -85.90726214767004  Ecoul = 43.27137877097055  Exc = -6.724775798467819
init E= -32.0421322723309
cond(S) = 1605.7615889019935
    CPU time for initialize scf      0.41 sec, wall time      0.41 sec
HOMO (E1gx) = -0.231353756778737  LUMO (A1u) = 0.224223619185889
double occ irrep_nelec = [2, 0, 0, 1, 1, 1, 0, 0, 0, 0, 0, 0, 0, 0]
single occ irrep_nelec = [0, 1, 1, 0, 0, 0, 0, 0, 0, 0, 0, 0, 0, 0]
                  Roothaan           | alpha              | beta
  Highest 2-occ =  -0.57247272720444 |  -0.57247272720444 |  -0.57247272720444
  Lowest 0-occ =   0.224223619185889 |  0.224223619185889 |  0.224223619185889
  1-occ =         -0.231353756778737 | -0.231353756778737 | -0.231353756778737
  1-occ =         -0.231353756778738 | -0.231353756778738 | -0.231353756778738
  Roothaan mo_energy =
[-1.40575555 -0.58755015  0.44789436  0.71437243  2.0868335   3.29799455
  5.2669729   7.97728999 15.24970158 -0.23135376  0.54050114  2.2501434
  3.20901647  6.61488715  7.7628765  -0.23135376  0.54050114  2.2501434
  3.20901647  6.61488715  7.7628765  -0.81775249  0.22422362  0.47805394
  1.14636459  2.19575797  3.78886503  5.76799175  7.39174854 24.26880341
 -0.57247273  0.40265952  1.36368465  2.76999787  4.78907979  6.80713901
 -0.57247273  0.40265952  1.36368465  2.76999787  4.78907979  6.80713901
  1.21325378  4.57837349  6.29917116  1.21376624  4.57817221  6.29935166
  5.29802243  5.29802243  1.70454346  6.0585788   6.53711891  1.70481984
  6.05901643  6.53738457  4.90107092  4.90107092]
nelec by numeric integration = [6.99999983 4.99999985]
    CPU time for vxc      0.24 sec, wall time      0.24 sec
    CPU time for df-vj      0.05 sec, wall time      0.05 sec
E1 = -86.66837971838169  Ecoul = 44.480667270675625  Exc = -7.03876879457107
cycle= 1 E= -31.9079543394408  delta_E= 0.134  |g|= 0.258  |ddm|= 2.16
    CPU time for cycle= 1      0.30 sec, wall time      0.30 sec
HOMO (E1gx) = -0.12917962855263  LUMO (A1u) = 0.287304325444552
double occ irrep_nelec = [2, 0, 0, 1, 1, 1, 0, 0, 0, 0, 0, 0, 0, 0]
single occ irrep_nelec = [0, 1, 1, 0, 0, 0, 0, 0, 0, 0, 0, 0, 0, 0]
                  Roothaan           | alpha              | beta
  Highest 2-occ = -0.464757701925428 | -0.486543000180119 | -0.442972403670734
  Lowest 0-occ =   0.287304325444552 |   0.25931378519381 |  0.315294865695306
  1-occ =          -0.12917962855263 | -0.193354885202983 | -0.0664381521646949
  1-occ =         -0.129179628552632 | -0.193354885202984 | -0.0664381521646959
  Roothaan mo_energy =
[-1.32406722 -0.4647577   0.50278249  0.78180754  2.16960509  3.38594073
  5.33829662  8.06709606 15.39934891 -0.12917963  0.59009842  2.3227566
  3.3052052   6.71625047  7.8191886  -0.12917963  0.59009842  2.3227566
  3.3052052   6.71625047  7.8191886  -0.69815326  0.28730433  0.58256738
  1.19383784  2.28276104  3.89236935  5.85942752  7.48470647 24.42396752
 -0.48754016  0.44611198  1.42527682  2.86996714  4.84384685  6.9016853
 -0.48754016  0.44611198  1.42527682  2.86996714  4.84384685  6.9016853
  1.25901585  4.63464398  6.40739548  1.25883507  4.63392334  6.40662602
  5.36635506  5.36635506  1.76049443  6.12038117  6.65034437  1.76071315
  6.12048109  6.65125245  4.96356179  4.96356179]
nelec by numeric integration = [6.99999984 4.99999986]
    CPU time for vxc      0.24 sec, wall time      0.24 sec
    CPU time for df-vj      0.05 sec, wall time      0.05 sec
E1 = -86.01553398212232  Ecoul = 43.65704561659697  Exc = -6.87485671687573
cycle= 2 E= -31.9148181795647  delta_E= -0.00686  |g|= 0.147  |ddm|= 0.418
    CPU time for cycle= 2      0.30 sec, wall time      0.30 sec
HOMO (E1gx) = -0.173375164056737  LUMO (A1u) = 0.264953753378671
double occ irrep_nelec = [2, 0, 0, 1, 1, 1, 0, 0, 0, 0, 0, 0, 0, 0]
single occ irrep_nelec = [0, 1, 1, 0, 0, 0, 0, 0, 0, 0, 0, 0, 0, 0]
                  Roothaan           | alpha              | beta
  Highest 2-occ = -0.513488714603116 | -0.557642018187122 |  -0.49945910926227
  Lowest 0-occ =   0.264953753378671 |  0.226944178823255 |  0.281094037454555
  1-occ =         -0.173375164056737 | -0.258225279741646 | -0.128574158512544
  1-occ =         -0.173375164056738 | -0.258225279741647 | -0.128574158512544
  Roothaan mo_energy =
[-1.36505915 -0.51348871  0.4855084   0.75250698  2.13741816  3.34229514
  5.2917293   8.01606792 15.33123529 -0.17337516  0.57291863  2.29406948
  3.26422754  6.66413947  7.78130208 -0.17337516  0.57291863  2.29406948
  3.26422754  6.66413947  7.78130208 -0.74459954  0.26495375  0.53915784
  1.17633364  2.24673838  3.85234274  5.8179776   7.43244378 24.34544728
 -0.52624122  0.42904763  1.395305    2.82571696  4.80758675  6.85015046
 -0.52624122  0.42904763  1.395305    2.82571696  4.80758675  6.85015046
  1.23575911  4.60139845  6.35696052  1.23556009  4.60076537  6.35648979
  5.33448684  5.33448684  1.73552854  6.08442804  6.60140991  1.73577897
  6.08452945  6.60196459  4.93218779  4.93218779]
nelec by numeric integration = [6.99999983 4.99999986]
    CPU time for vxc      0.24 sec, wall time      0.24 sec
    CPU time for df-vj      0.05 sec, wall time      0.05 sec
E1 = -86.40044588996726  Ecoul = 44.12417762028253  Exc = -6.960936928030986
cycle= 3 E= -31.9186782948793  delta_E= -0.00386  |g|= 0.0336  |ddm|= 0.207
    CPU time for cycle= 3      0.29 sec, wall time      0.29 sec
HOMO (E1gx) = -0.165625549987047  LUMO (A1u) = 0.268878451613605
double occ irrep_nelec = [2, 0, 0, 1, 1, 1, 0, 0, 0, 0, 0, 0, 0, 0]
single occ irrep_nelec = [0, 1, 1, 0, 0, 0, 0, 0, 0, 0, 0, 0, 0, 0]
                  Roothaan           | alpha              | beta
  Highest 2-occ = -0.506868075519147 | -0.520359804954776 | -0.464650195499588
  Lowest 0-occ =   0.268878451613605 |  0.245956349346372 |  0.300430294050262
  1-occ =         -0.165625549987047 |  -0.22222873273685 | -0.0921817268252898
  1-occ =         -0.165625549987048 | -0.222228732736851 | -0.0921817268252899
  Roothaan mo_energy =
[-1.35453542 -0.50686808  0.48805454  0.75744304  2.14204822  3.35050881
  5.30099138  8.02429002 15.34199639 -0.16562555  0.57588473  2.29847919
  3.27154712  6.67255273  7.78814904 -0.16562555  0.57588473  2.29847919
  3.27154712  6.67255273  7.78814904 -0.73838168  0.26887845  0.54634898
  1.17942041  2.25282202  3.85808462  5.82418753  7.4424219  24.35809178
 -0.51851347  0.43269431  1.40077445  2.83339326  4.81588315  6.85805079
 -0.51851347  0.43269431  1.40077445  2.83339326  4.81588315  6.85805079
  1.2409677   4.60809794  6.3657834   1.24076497  4.60746792  6.36524064
  5.34067303  5.34067303  1.74011829  6.09188127  6.60904099  1.74036818
  6.0919692   6.6096709   4.93851879  4.93851879]
nelec by numeric integration = [6.99999983 4.99999986]
    CPU time for vxc      0.24 sec, wall time      0.24 sec
    CPU time for df-vj      0.05 sec, wall time      0.05 sec
E1 = -86.33121124538734  Ecoul = 44.04099535749749  Exc = -6.947198736144504
cycle= 4 E= -31.918887721198  delta_E= -0.000209  |g|= 0.00401  |ddm|= 0.0302
    CPU time for cycle= 4      0.29 sec, wall time      0.29 sec
HOMO (E1gx) = -0.164222278338458  LUMO (A1u) = 0.269456054688055
double occ irrep_nelec = [2, 0, 0, 1, 1, 1, 0, 0, 0, 0, 0, 0, 0, 0]
single occ irrep_nelec = [0, 1, 1, 0, 0, 0, 0, 0, 0, 0, 0, 0, 0, 0]
                  Roothaan           | alpha              | beta
  Highest 2-occ = -0.505797794957546 | -0.526113505598395 | -0.471209500549286
  Lowest 0-occ =   0.269456054688055 |  0.242717067521844 |  0.297043570993726
  1-occ =         -0.164222278338458 | -0.228398296103984 | -0.0984474954100462
  1-occ =         -0.164222278338458 | -0.228398296103985 | -0.0984474954100467
  Roothaan mo_energy =
[-1.35314587 -0.50579779  0.48841684  0.75819868  2.14281412  3.35161142
  5.3020673   8.02552163 15.3435817  -0.16422228  0.57639069  2.29934139
  3.27272156  6.67382142  7.78929932 -0.16422228  0.57639069  2.29934139
  3.27272156  6.67382142  7.78929932 -0.73729436  0.26945605  0.54744886
  1.18001814  2.25374372  3.85918001  5.82534868  7.44364663 24.35978371
 -0.51738511  0.43329788  1.40159408  2.83458786  4.81702352  6.85923359
 -0.51738511  0.43329788  1.40159408  2.83458786  4.81702352  6.85923359
  1.24172498  4.60910083  6.36712364  1.24151797  4.60848184  6.36653693
  5.3417312   5.3417312   1.74091933  6.09302316  6.61030377  1.7411696
  6.09311459  6.61097028  4.93953097  4.93953097]
nelec by numeric integration = [6.99999983 4.99999986]
    CPU time for vxc      0.23 sec, wall time      0.23 sec
    CPU time for df-vj      0.05 sec, wall time      0.05 sec
E1 = -86.32192295323507  Ecoul = 44.029749014970406  Exc = -6.945243695328841
cycle= 5 E= -31.9188907307571  delta_E= -3.01e-06  |g|= 8.04e-05  |ddm|= 0.00416
    CPU time for cycle= 5      0.29 sec, wall time      0.29 sec
HOMO (E1gy) = -0.164257824449854  LUMO (A1u) = 0.269434438993106
double occ irrep_nelec = [2, 0, 0, 1, 1, 1, 0, 0, 0, 0, 0, 0, 0, 0]
single occ irrep_nelec = [0, 1, 1, 0, 0, 0, 0, 0, 0, 0, 0, 0, 0, 0]
                  Roothaan           | alpha              | beta
  Highest 2-occ = -0.505826703824598 | -0.526941156415798 | -0.472059587958348
  Lowest 0-occ =   0.269434438993106 |  0.242279717936165 |  0.296574166639091
  1-occ =         -0.164257824449854 | -0.229255745711708 | -0.0992862387963876
  1-occ =         -0.164257824449854 | -0.229255745711708 | -0.0992862387963873
  Roothaan mo_energy =
[-1.35319012 -0.5058267   0.48839595  0.75817176  2.14278778  3.35157391
  5.30203103  8.02548588 15.34354295 -0.16425782  0.57636615  2.2993147
  3.27268597  6.67378414  7.78926771 -0.16425782  0.57636615  2.2993147
  3.27268597  6.67378414  7.78926771 -0.7373251   0.26943444  0.54741884
  1.18000682  2.25371694  3.85914773  5.82532149  7.4436048  24.35974836
 -0.51742343  0.43327021  1.40156212  2.83455081  4.81698714  6.85919716
 -0.51742343  0.43327021  1.40156212  2.83455081  4.81698714  6.85919716
  1.24169335  4.60906706  6.36708461  1.24148654  4.60844823  6.36649925
  5.3416999   5.3416999   1.74089204  6.09298961  6.6102704   1.74114198
  6.09308067  6.61093528  4.93949797  4.93949797]
nelec by numeric integration = [6.99999983 4.99999986]
    CPU time for vxc      0.23 sec, wall time      0.23 sec
    CPU time for df-vj      0.05 sec, wall time      0.05 sec
E1 = -86.32215183522052  Ecoul = 44.03002249782312  Exc = -6.9452882975907935
cycle= 6 E= -31.9188907321518  delta_E= -1.39e-09  |g|= 1.43e-05  |ddm|= 0.000107
    CPU time for cycle= 6      0.29 sec, wall time      0.29 sec
HOMO (E1gx) = -0.164254023545308  LUMO (A1u) = 0.2694358336142
double occ irrep_nelec = [2, 0, 0, 1, 1, 1, 0, 0, 0, 0, 0, 0, 0, 0]
single occ irrep_nelec = [0, 1, 1, 0, 0, 0, 0, 0, 0, 0, 0, 0, 0, 0]
                  Roothaan           | alpha              | beta
  Highest 2-occ =  -0.50582355294827 | -0.526922608495266 | -0.472037751827718
  Lowest 0-occ =     0.2694358336142 |  0.242290372243488 |  0.296585048299868
  1-occ =         -0.164254023545308 | -0.229235520930691 | -0.0992654433918476
  1-occ =         -0.164254023545309 | -0.229235520930692 | -0.0992654433918482
  Roothaan mo_energy =
[-1.35318627 -0.50582355  0.48839662  0.75817399  2.14278953  3.35157708
  5.30203446  8.02548932 15.34354801 -0.16425402  0.576367    2.29931648
  3.27268931  6.67378773  7.78927071 -0.16425402  0.576367    2.29931648
  3.27268931  6.67378773  7.78927071 -0.73732201  0.26943583  0.54742203
  1.18000864  2.25371947  3.85915015  5.82532482  7.44360861 24.35975446
 -0.51742029  0.43327149  1.40156407  2.83455393  4.81699037  6.85920053
 -0.51742029  0.43327149  1.40156407  2.83455393  4.81699037  6.85920053
  1.24169534  4.60906973  6.36708861  1.24148856  4.60845096  6.3665032
  5.34170287  5.34170287  1.74089424  6.09299288  6.61027422  1.74114415
  6.09308391  6.61093909  4.93950073  4.93950073]
nelec by numeric integration = [6.99999983 4.99999986]
    CPU time for vxc      0.23 sec, wall time      0.23 sec
    CPU time for df-vj      0.05 sec, wall time      0.05 sec
E1 = -86.32212296752664  Ecoul = 44.02998756487236  Exc = -6.9452822323709515
cycle= 7 E= -31.9188907321889  delta_E= -3.7e-11  |g|= 1.49e-06  |ddm|= 1.33e-05
    CPU time for cycle= 7      0.28 sec, wall time      0.28 sec
HOMO (E1gx) = -0.164253124518179  LUMO (A1u) = 0.269436317007607
double occ irrep_nelec = [2, 0, 0, 1, 1, 1, 0, 0, 0, 0, 0, 0, 0, 0]
single occ irrep_nelec = [0, 1, 1, 0, 0, 0, 0, 0, 0, 0, 0, 0, 0, 0]
                  Roothaan           | alpha              | beta
  Highest 2-occ = -0.505822770348881 |  -0.52692516341629 | -0.472040426075305
  Lowest 0-occ =   0.269436317007607 |  0.242289015963828 |  0.296583618051397
  1-occ =         -0.164253124518179 | -0.229238176494702 | -0.0992681013746155
  1-occ =          -0.16425312451818 | -0.229238176494703 | -0.0992681013746162
  Roothaan mo_energy =
[-1.35318521 -0.50582277  0.488397    0.75817457  2.14279013  3.35157796
  5.30203537  8.02549025 15.34354911 -0.16425312  0.57636745  2.29931709
  3.27269015  6.67378867  7.7892715  -0.16425312  0.57636745  2.29931709
  3.27269015  6.67378867  7.7892715  -0.73732124  0.26943632  0.54742284
  1.18000899  2.25372016  3.85915091  5.82532557  7.44360963 24.35975562
 -0.51741944  0.43327199  1.40156473  2.8345548   4.81699124  6.85920143
 -0.51741944  0.43327199  1.40156473  2.8345548   4.81699124  6.85920143
  1.24169595  4.60907049  6.36708957  1.24148917  4.60845172  6.36650413
  5.34170359  5.34170359  1.74089481  6.09299368  6.61027508  1.74114473
  6.09308473  6.61093998  4.93950146  4.93950146]
nelec by numeric integration = [6.99999983 4.99999986]
    CPU time for vxc      0.24 sec, wall time      0.24 sec
    CPU time for df-vj      0.05 sec, wall time      0.05 sec
E1 = -86.32211630495225  Ecoul = 44.02997953765393  Exc = -6.945280867727076
Extra cycle  E= -31.918890732189  delta_E= -1.63e-13  |g|= 1.29e-06  |ddm|= 2.97e-06
    CPU time for scf_cycle      2.75 sec, wall time      2.75 sec
    CPU time for SCF      2.75 sec, wall time      2.75 sec
converged SCF energy = -31.918890732189
Using Python 3.x
Wavefunction successfully saved to QMCPACK HDF5 Format
Use: "convert4qmc -pyscf  scf.h5" to generate QMCPACK input files
