#INFO: **** input file is /home/abenali/Work/WorkShop/qmcpack_workshop_2021/qmc_workshop_2021/week4_molecules/Be2/01_qmc_SD/runs/Be2/cc-pvqz/LDA/SCF/scf.py ****

#! /usr/bin/env python3

import numpy as np
from numpy import array

### generated pyscfimport text ###
from pyscf import df, scf, dft
### end generated pyscfimport text ###





### generated system text ###
from pyscf import gto as gto_loc
mol = gto_loc.Mole()
mol.verbose  = 5
mol.atom     = '''
               Be   0.00000000   0.00000000   0.00000000
               Be   4.63663771   0.00000000   0.00000000
               '''
mol.basis    = 'cc-pvqz'
mol.unit     = 'B'
mol.charge   = 0
mol.spin     = 0
mol.symmetry = True
mol.build()
### end generated system text ###




### generated calculation text ###
mf = scf.ROKS(mol).density_fit()
mf.max_cycle=200
mf.level_shift=0.0
mf.xc          = 'LDA'
mf.tol         = '1e-10'
e_scf = mf.kernel()
### end generated calculation text ###



### generated conversion text ###
from PyscfToQmcpack import savetoqmcpack
savetoqmcpack(mol,mf,'scf')
### end generated conversion text ###

#INFO: ******************** input file end ********************


System: uname_result(system='Linux', node='abenali', release='5.11.0-38-generic', version='#42~20.04.1-Ubuntu SMP Tue Sep 28 20:41:07 UTC 2021', machine='x86_64', processor='x86_64')  Threads 1
Python 3.7.11 (default, Sep  9 2021, 02:06:38) 
[GCC 9.3.0]
numpy 1.20.3  scipy 1.6.2
Date: Thu Oct 21 22:45:20 2021
PySCF version 2.0.0a
PySCF path  /home/abenali/Work/src/pyscf
GIT HEAD (branch master) 3e8ba375fd4229f000289589fd02193633380853

[CONFIG] conf_file None
[INPUT] verbose = 5
[INPUT] max_memory = 4000 
[INPUT] num. atoms = 2
[INPUT] num. electrons = 8
[INPUT] charge = 0
[INPUT] spin (= nelec alpha-beta = 2S) = 0
[INPUT] symmetry True subgroup None
[INPUT] Mole.unit = B
[INPUT]  1 Be     0.000000000000   0.000000000000   0.000000000000 AA    0.000000000000   0.000000000000   0.000000000000 Bohr
[INPUT]  2 Be     2.453603011424   0.000000000000   0.000000000000 AA    4.636637710000   0.000000000000   0.000000000000 Bohr
[INPUT] ---------------- BASIS SET ---------------- 
[INPUT] l, kappa, [nprim/nctr], expnt,             c_1 c_2 ...
[INPUT] Be
[INPUT] 0    0    [9    /2   ]  14630             9.2e-05 -1.7e-05
                                2191              0.000713 -0.00013
                                498.2             0.003735 -0.000679
                                140.9             0.015468 -0.002857
                                45.86             0.052874 -0.009813
                                16.47             0.145694 -0.028609
                                6.319             0.302681 -0.06376
                                2.535             0.404936 -0.117231
                                1.035             0.222387 -0.121202
[INPUT] 0    0    [1    /1   ]  0.2528               1
[INPUT] 0    0    [1    /1   ]  0.1052               1
[INPUT] 0    0    [1    /1   ]  0.04261              1
[INPUT] 1    0    [3    /1   ]  14.03             0.004099
                                3.168             0.025626
                                0.9024            0.103768
[INPUT] 1    0    [1    /1   ]  0.3036               1
[INPUT] 1    0    [1    /1   ]  0.113                1
[INPUT] 1    0    [1    /1   ]  0.04286              1
[INPUT] 2    0    [1    /1   ]  1.072                1
[INPUT] 2    0    [1    /1   ]  0.441                1
[INPUT] 2    0    [1    /1   ]  0.1811               1
[INPUT] 3    0    [1    /1   ]  0.481                1
[INPUT] 3    0    [1    /1   ]  0.255                1
[INPUT] 4    0    [1    /1   ]  0.415                1

nuclear repulsion = 3.45077640323121
point group symmetry = Dooh
num. orbitals of irrep A1g = 15
num. orbitals of irrep E1gx = 10
num. orbitals of irrep E1gy = 10
num. orbitals of irrep A1u = 15
num. orbitals of irrep E1uy = 10
num. orbitals of irrep E1ux = 10
num. orbitals of irrep E2gx = 6
num. orbitals of irrep E2gy = 6
num. orbitals of irrep E3gx = 3
num. orbitals of irrep E3gy = 3
num. orbitals of irrep E2uy = 6
num. orbitals of irrep E2ux = 6
num. orbitals of irrep E3uy = 3
num. orbitals of irrep E3ux = 3
num. orbitals of irrep E4gx = 1
num. orbitals of irrep E4gy = 1
num. orbitals of irrep E4uy = 1
num. orbitals of irrep E4ux = 1
number of shells = 28
number of NR pGTOs = 136
number of NR cGTOs = 110
basis = cc-pvqz
ecp = {}
CPU time:         0.40


******** <class 'pyscf.df.df_jk.density_fit.<locals>.DFHF'> ********
method = DFHF-SymAdaptedROKS-SymAdaptedROHF-ROHF-RHF
initial guess = minao
damping factor = 0
level_shift factor = 0.0
DIIS = <class 'pyscf.scf.diis.CDIIS'>
diis_start_cycle = 1
diis_space = 8
SCF conv_tol = 1e-09
SCF conv_tol_grad = None
SCF max_cycles = 200
direct_scf = True
direct_scf_tol = 1e-13
chkfile to save SCF result = /home/abenali/Work/WorkShop/qmcpack_workshop_2021/qmc_workshop_2021/week4_molecules/Be2/01_qmc_SD/runs/Be2/cc-pvqz/LDA/SCF/tmphu94vk9p
max_memory 4000 MB (current use 112 MB)
num. doubly occ = 4  num. singly occ = 0
XC library pyscf.dft.libxc version 5.1.5
    S. Lehtola, C. Steigemann, M. J. Oliveira, and M. A. Marques, SoftwareX 7, 1 (2018)
XC functionals = LDA
    P. A. M. Dirac, Math. Proc. Cambridge Philos. Soc. 26, 376 (1930)
    F. Bloch, Z. Phys. 57, 545 (1929)
radial grids: 
    Treutler-Ahlrichs [JCP 102, 346 (1995); DOI:10.1063/1.469408] (M4) radial grids
    
becke partition: Becke, JCP 88, 2547 (1988); DOI:10.1063/1.454033
pruning grids: <function nwchem_prune at 0x7f7b28100d40>
grids dens level: 3
symmetrized grids: True
atomic radii adjust function: <function treutler_atomic_radii_adjust at 0x7f7b28109200>
small_rho_cutoff = 1e-07
Freeze 0 electrons in irreps []
    8 free electrons in irreps A1g E1gx E1gy A1u E1uy E1ux E2gx E2gy E3gx E3gy E2uy E2ux E3uy E3ux E4gx E4gy E4uy E4ux
Set gradient conv threshold to 3.16228e-05
atom Be rad-grids = 75, ang-grids = [ 50  50  50  50  50  50  50  50  50  50  50  50  50  50  50  50  50  50
  50  50  50  50  50  50  50  50  86  86  86  86  86  86  86  86  86  86
  86 266 266 266 266 266 266 266 266 302 302 302 302 302 302 302 302 302
 302 302 302 302 302 302 302 302 302 302 302 302 266 266 266 266 266 266
 266 266 266]
tot grids = 26220
Drop grids 790
    CPU time for setting up grids      0.07 sec, wall time      0.14 sec
nelec by numeric integration = [3.99999276 3.99999276]
    CPU time for vxc      0.17 sec, wall time      0.38 sec
Even tempered Gaussians are generated as DF auxbasis for  Be
  ETB auxbasis for Be  [[0, [698.12224, 1]], [0, [349.06112, 1]], [0, [174.53056, 1]], [0, [87.26528, 1]], [0, [43.63264, 1]], [0, [21.81632, 1]], [0, [10.90816, 1]], [0, [5.45408, 1]], [0, [2.72704, 1]], [0, [1.36352, 1]], [0, [0.68176, 1]], [0, [0.34088, 1]], [0, [0.17044, 1]], [0, [0.08522, 1]], [1, [87.5209055988248, 1]], [1, [43.7604527994124, 1]], [1, [21.8802263997062, 1]], [1, [10.9401131998531, 1]], [1, [5.47005659992655, 1]], [1, [2.735028299963275, 1]], [1, [1.3675141499816375, 1]], [1, [0.6837570749908187, 1]], [1, [0.34187853749540936, 1]], [1, [0.17093926874770468, 1]], [1, [0.08546963437385234, 1]], [2, [21.94432, 1]], [2, [10.97216, 1]], [2, [5.48608, 1]], [2, [2.74304, 1]], [2, [1.37152, 1]], [2, [0.68576, 1]], [2, [0.34288, 1]], [2, [0.17144, 1]], [2, [0.08572, 1]]]
num shells = 68, num cGTOs = 184
    CPU time for df-vj      0.11 sec, wall time      0.34 sec
E1 = -45.157402197680355  Ecoul = 17.91016394272344  Exc = -4.691786436664188
init E= -28.4882482883899
cond(S) = 8315.302278583578
    CPU time for initialize scf      0.37 sec, wall time      0.91 sec
HOMO (A1u) = -0.11924770846494  LUMO (E1uy) = -0.0662302937855188
double occ irrep_nelec = [2, 0, 0, 2, 0, 0, 0, 0, 0, 0, 0, 0, 0, 0, 0, 0, 0, 0]
single occ irrep_nelec = [0, 0, 0, 0, 0, 0, 0, 0, 0, 0, 0, 0, 0, 0, 0, 0, 0, 0]
  Roothaan mo_energy =
[-3.72374223e+00 -2.16721398e-01 -6.07570292e-02  8.02105118e-02
  1.06238016e-01  4.35361524e-01  5.66688716e-01  6.05589305e-01
  1.04935188e+00  1.55584592e+00  2.02421939e+00  2.20547173e+00
  2.90718262e+00  4.05938509e+00  7.26409950e+00  3.81260776e-03
  1.37687456e-01  5.11856626e-01  5.89981533e-01  1.23557010e+00
  1.52314457e+00  2.09363696e+00  2.52016856e+00  2.88617705e+00
  4.13054412e+00  3.81260776e-03  1.37687456e-01  5.11856626e-01
  5.89981533e-01  1.23557010e+00  1.52314457e+00  2.09363696e+00
  2.52016856e+00  2.88617705e+00  4.13054412e+00 -3.72368548e+00
 -1.19247708e-01  6.73300853e-02  1.40656290e-01  1.95181283e-01
  4.42514608e-01  6.26114764e-01  8.28797274e-01  1.09092291e+00
  1.62047757e+00  2.18087516e+00  2.62018306e+00  2.91598010e+00
  4.45122944e+00  6.91227766e+00 -6.62302938e-02  1.05571507e-01
  3.21444544e-01  5.24890334e-01  8.53377446e-01  1.36207789e+00
  1.91031710e+00  2.13599386e+00  2.57930202e+00  3.98353770e+00
 -6.62302938e-02  1.05571507e-01  3.21444544e-01  5.24890334e-01
  8.53377446e-01  1.36207789e+00  1.91031710e+00  2.13599386e+00
  2.57930202e+00  3.98353770e+00  3.07764840e-01  7.44000361e-01
  1.33288687e+00  1.81782025e+00  2.33332505e+00  3.94454822e+00
  3.07765379e-01  7.44000002e-01  1.33289274e+00  1.81781944e+00
  2.33332386e+00  3.94453512e+00  8.54598721e-01  2.08057708e+00
  2.36305271e+00  8.54598721e-01  2.08057708e+00  2.36305271e+00
  4.02317371e-01  1.00379230e+00  1.39133835e+00  2.31426170e+00
  2.53251932e+00  3.98887684e+00  4.02316762e-01  1.00379292e+00
  1.39133212e+00  2.31426145e+00  2.53252844e+00  3.98888854e+00
  7.62911229e-01  1.83600086e+00  2.31040200e+00  7.62911229e-01
  1.83600086e+00  2.31040200e+00  1.92566830e+00  1.92569998e+00
  1.96671041e+00  1.96667797e+00]
nelec by numeric integration = [4.00000009 4.00000009]
    CPU time for vxc      0.13 sec, wall time      0.37 sec
    CPU time for df-vj      0.08 sec, wall time      0.26 sec
E1 = -44.8317959751385  Ecoul = 17.505178243975866  Exc = -4.583462385801672
cycle= 1 E= -28.4593037137331  delta_E= 0.0289  |g|= 0.0737  |ddm|=  0.7
    CPU time for cycle= 1      0.23 sec, wall time      0.67 sec
HOMO (A1u) = -0.135342340274036  LUMO (E1ux) = -0.081485403356562
double occ irrep_nelec = [2, 0, 0, 2, 0, 0, 0, 0, 0, 0, 0, 0, 0, 0, 0, 0, 0, 0]
single occ irrep_nelec = [0, 0, 0, 0, 0, 0, 0, 0, 0, 0, 0, 0, 0, 0, 0, 0, 0, 0]
  Roothaan mo_energy =
[-3.79879091 -0.23385363 -0.07499844  0.0698703   0.09612827  0.42462208
  0.54889797  0.58975184  1.03322118  1.54164347  2.00143391  2.18195184
  2.8874945   4.03042011  7.203777   -0.0113321   0.12534585  0.49793757
  0.57471652  1.22222242  1.50774707  2.06071609  2.50409043  2.86966395
  4.10221891 -0.0113321   0.12534585  0.49793757  0.57471652  1.22222242
  1.50774707  2.06071609  2.50409043  2.86966395  4.10221891 -3.79873852
 -0.13534234  0.05705667  0.12875366  0.181924    0.42834759  0.6096055
  0.81647688  1.07520192  1.60391228  2.16430499  2.60350505  2.88645848
  4.4227158   6.85094572 -0.0814854   0.09493928  0.30807095  0.5069205
  0.8408258   1.34636994  1.89264937  2.10397328  2.56303337  3.95484283
 -0.0814854   0.09493928  0.30807095  0.5069205   0.8408258   1.34636994
  1.89264937  2.10397328  2.56303337  3.95484283  0.29394881  0.73058141
  1.3150962   1.80371267  2.31630064  3.91457508  0.2939493   0.73058108
  1.31510142  1.803712    2.31629961  3.91456344  0.84105485  2.06579937
  2.34489333  0.84105485  2.06579937  2.34489333  0.3887474   0.99101839
  1.37355268  2.29895603  2.51667746  3.95890852  0.38874684  0.99101897
  1.37354718  2.29895571  2.51668587  3.95891896  0.74927138  1.82085477
  2.29249812  0.74927138  1.82085477  2.29249812  1.90987434  1.90990386
  1.95090555  1.95087533]
nelec by numeric integration = [4.00000009 4.00000009]
    CPU time for vxc      0.11 sec, wall time      0.32 sec
    CPU time for df-vj      0.08 sec, wall time      0.24 sec
E1 = -44.92806082000376  Ecoul = 17.628092885133555  Exc = -4.61059692791811
cycle= 2 E= -28.4597884595571  delta_E= -0.000485  |g|= 0.018  |ddm|= 0.111
    CPU time for cycle= 2      0.21 sec, wall time      0.61 sec
HOMO (A1u) = -0.131494039485848  LUMO (E1uy) = -0.0774292741744825
double occ irrep_nelec = [2, 0, 0, 2, 0, 0, 0, 0, 0, 0, 0, 0, 0, 0, 0, 0, 0, 0]
single occ irrep_nelec = [0, 0, 0, 0, 0, 0, 0, 0, 0, 0, 0, 0, 0, 0, 0, 0, 0, 0]
  Roothaan mo_energy =
[-3.78234321 -0.22826175 -0.07102077  0.07220003  0.09811746  0.42795975
  0.55279989  0.59428864  1.03846375  1.54628592  2.00847026  2.18834412
  2.89325607  4.03804459  7.21717381 -0.00778188  0.12780986  0.50150783
  0.57843746  1.22605169  1.51194933  2.0688598   2.50964592  2.87408568
  4.10988631 -0.00778188  0.12780986  0.50150783  0.57843746  1.22605169
  1.51194933  2.0688598   2.50964592  2.87408568  4.10988631 -3.78229008
 -0.13149404  0.05896615  0.13160674  0.18548165  0.43188772  0.6137445
  0.81967749  1.07938695  1.6087689   2.16943871  2.60889007  2.89449567
  4.43049178  6.86465871 -0.07742927  0.09738146  0.31157999  0.51142217
  0.8446215   1.35111285  1.89827626  2.11192838  2.5678571   3.96241118
 -0.07742927  0.09738146  0.31157999  0.51142217  0.8446215   1.35111285
  1.89827626  2.11192838  2.5678571   3.96241118  0.29743121  0.73398234
  1.3199643   1.80817506  2.3211243   3.92217954  0.2974317   0.73398201
  1.31996962  1.80817436  2.32112324  3.92216802  0.8441863   2.0700903
  2.349556    0.8441863   2.0700903   2.349556    0.39184778  0.99431838
  1.37822048  2.30416096  2.52075617  3.96649168  0.39184721  0.99431896
  1.37821486  2.30416066  2.52076467  3.96650196  0.75258358  1.82496425
  2.29738253  0.75258358  1.82496425  2.29738253  1.9138858   1.9139155
  1.95489973  1.95486932]
nelec by numeric integration = [4.00000009 4.00000009]
    CPU time for vxc      0.11 sec, wall time      0.33 sec
    CPU time for df-vj      0.08 sec, wall time      0.17 sec
E1 = -44.89210038598688  Ecoul = 17.58465942735623  Exc = -4.603189388573849
cycle= 3 E= -28.4598539439733  delta_E= -6.55e-05  |g|= 0.00358  |ddm|= 0.0234
    CPU time for cycle= 3      0.21 sec, wall time      0.54 sec
HOMO (A1u) = -0.131661671620626  LUMO (E1ux) = -0.0779465168556224
double occ irrep_nelec = [2, 0, 0, 2, 0, 0, 0, 0, 0, 0, 0, 0, 0, 0, 0, 0, 0, 0]
single occ irrep_nelec = [0, 0, 0, 0, 0, 0, 0, 0, 0, 0, 0, 0, 0, 0, 0, 0, 0, 0]
  Roothaan mo_energy =
[-3.78254483 -0.22922149 -0.07137238  0.07198819  0.09793314  0.42753739
  0.55271309  0.59367843  1.03771763  1.54566664  2.00766305  2.18774903
  2.89273973  4.03743955  7.2168388  -0.00807324  0.12759985  0.50122554
  0.57811035  1.22559574  1.51155194  2.0683794   2.50877575  2.87374534
  4.10920908 -0.00807324  0.12759985  0.50122554  0.57811035  1.22559574
  1.51155194  2.0683794   2.50877575  2.87374534  4.10920908 -3.78249163
 -0.13166167  0.0588386   0.13142823  0.18501642  0.43163873  0.61338056
  0.81955306  1.07892413  1.60832038  2.16891199  2.60817418  2.89386873
  4.42979532  6.86429335 -0.07794652  0.09709247  0.31116631  0.51098522
  0.84407072  1.35053108  1.89743695  2.11137935  2.56738921  3.96177873
 -0.07794652  0.09709247  0.31116631  0.51098522  0.84407072  1.35053108
  1.89743695  2.11137935  2.56738921  3.96177873  0.29694814  0.73352821
  1.31940909  1.80747553  2.32058428  3.9215964   0.29694864  0.73352788
  1.31941441  1.80747483  2.32058323  3.92158485  0.84384727  2.0695017
  2.34909556  0.84384727  2.0695017   2.34909556  0.39155003  0.99394932
  1.37774253  2.30327717  2.52046958  3.96591721  0.39154947  0.9939499
  1.37773691  2.30327687  2.52047807  3.96592753  0.75215266  1.82442878
  2.2968218   0.75215266  1.82442878  2.2968218   1.91341324  1.91344294
  1.95443989  1.95440949]
nelec by numeric integration = [4.00000009 4.00000009]
    CPU time for vxc      0.10 sec, wall time      0.24 sec
    CPU time for df-vj      0.08 sec, wall time      0.23 sec
E1 = -44.898053697900735  Ecoul = 17.591132931651558  Exc = -4.603719393688368
cycle= 4 E= -28.4598637567063  delta_E= -9.81e-06  |g|= 0.000318  |ddm|= 0.00548
    CPU time for cycle= 4      0.20 sec, wall time      0.52 sec
HOMO (A1u) = -0.131802140286638  LUMO (E1ux) = -0.0780335709540811
double occ irrep_nelec = [2, 0, 0, 2, 0, 0, 0, 0, 0, 0, 0, 0, 0, 0, 0, 0, 0, 0]
single occ irrep_nelec = [0, 0, 0, 0, 0, 0, 0, 0, 0, 0, 0, 0, 0, 0, 0, 0, 0, 0]
  Roothaan mo_energy =
[-3.78286246 -0.22931651 -0.07151081  0.07192576  0.09785401  0.42744689
  0.55256588  0.59358563  1.03759386  1.54554754  2.00749155  2.18758592
  2.89258429  4.03724164  7.21657897 -0.0081793   0.12752147  0.50111168
  0.57801194  1.22549325  1.51142351  2.06819234  2.50864811  2.87360493
  4.10901326 -0.0081793   0.12752147  0.50111168  0.57801194  1.22549325
  1.51142351  2.06819234  2.50864811  2.87360493  4.10901326 -3.78280927
 -0.13180214  0.05875642  0.13133146  0.18493097  0.43151571  0.61326869
  0.81944067  1.07881423  1.60816973  2.16878055  2.60803644  2.89366438
  4.42960133  6.86402887 -0.07803357  0.09703562  0.31106549  0.51087603
  0.84397624  1.35039834  1.8973094   2.11120202  2.56724601  3.96158196
 -0.07803357  0.09703562  0.31106549  0.51087603  0.84397624  1.35039834
  1.8973094   2.11120202  2.56724601  3.96158196  0.29687984  0.73344092
  1.31928931  1.80737305  2.32044773  3.92141092  0.29688034  0.73344059
  1.31929462  1.80737235  2.32044667  3.92139936  0.84377086  2.06940409
  2.34896872  0.84377086  2.06940409  2.34896872  0.39146442  0.99386162
  1.37761839  2.30317825  2.52032658  3.96573126  0.39146386  0.9938622
  1.37761278  2.30317795  2.52033507  3.96574159  0.75208446  1.8243228
  2.2967053   0.75208446  1.8243228   2.2967053   1.91332106  1.91335076
  1.95434662  1.95431622]
nelec by numeric integration = [4.00000009 4.00000009]
    CPU time for vxc      0.11 sec, wall time      0.25 sec
    CPU time for df-vj      0.08 sec, wall time      0.23 sec
E1 = -44.898442653839986  Ecoul = 17.59163237216679  Exc = -4.603829928679751
cycle= 5 E= -28.4598638071217  delta_E= -5.04e-08  |g|= 2.97e-05  |ddm|= 0.00106
    CPU time for cycle= 5      0.20 sec, wall time      0.52 sec
HOMO (A1u) = -0.131798157062605  LUMO (E1ux) = -0.0780318257963796
double occ irrep_nelec = [2, 0, 0, 2, 0, 0, 0, 0, 0, 0, 0, 0, 0, 0, 0, 0, 0, 0]
single occ irrep_nelec = [0, 0, 0, 0, 0, 0, 0, 0, 0, 0, 0, 0, 0, 0, 0, 0, 0, 0]
  Roothaan mo_energy =
[-3.7828673  -0.22931586 -0.0715072   0.07192762  0.0978545   0.42745022
  0.55256973  0.59358755  1.03759663  1.54555147  2.00749385  2.18758878
  2.89258932  4.03724608  7.2165751  -0.00817692  0.12752278  0.5011148
  0.57801484  1.22549624  1.51142704  2.06819552  2.50865078  2.8736092
  4.10901724 -0.00817692  0.12752278  0.5011148   0.57801484  1.22549624
  1.51142704  2.06819552  2.50865078  2.8736092   4.10901724 -3.78281411
 -0.13179816  0.05875705  0.13133523  0.18493257  0.4315188   0.61327127
  0.81944634  1.07881618  1.60817511  2.16878557  2.60803989  2.89366687
  4.42960545  6.86402507 -0.07803183  0.09703696  0.31106707  0.51087823
  0.8439785   1.35040136  1.89731059  2.11120476  2.56725085  3.96158579
 -0.07803183  0.09703696  0.31106707  0.51087823  0.8439785   1.35040136
  1.89731059  2.11120476  2.56725085  3.96158579  0.29688106  0.73344161
  1.31929231  1.80737494  2.32045058  3.92141483  0.29688155  0.73344128
  1.31929762  1.80737424  2.32044953  3.92140327  0.84377266  2.06940627
  2.34897175  0.84377266  2.06940627  2.34897175  0.3914664   0.99386385
  1.37762145  2.30318022  2.52033042  3.96573521  0.39146583  0.99386443
  1.37761584  2.30317991  2.52033891  3.96574553  0.75208583  1.82432415
  2.29670849  0.75208583  1.82432415  2.29670849  1.91332339  1.91335308
  1.95434903  1.95431863]
nelec by numeric integration = [4.00000009 4.00000009]
    CPU time for vxc      0.10 sec, wall time      0.24 sec
    CPU time for df-vj      0.08 sec, wall time      0.20 sec
E1 = -44.898453523661054  Ecoul = 17.59164638305674  Exc = -4.603833070016229
cycle= 6 E= -28.4598638073893  delta_E= -2.68e-10  |g|= 2.53e-06  |ddm|= 3.87e-05
    CPU time for cycle= 6      0.20 sec, wall time      0.46 sec
HOMO (A1u) = -0.131799233150687  LUMO (E1uy) = -0.0780332341892514
double occ irrep_nelec = [2, 0, 0, 2, 0, 0, 0, 0, 0, 0, 0, 0, 0, 0, 0, 0, 0, 0]
single occ irrep_nelec = [0, 0, 0, 0, 0, 0, 0, 0, 0, 0, 0, 0, 0, 0, 0, 0, 0, 0]
  Roothaan mo_energy =
[-3.78286927 -0.22931784 -0.07150841  0.07192683  0.09785385  0.42744909
  0.55256876  0.59358603  1.0375949   1.54554993  2.00749185  2.18758696
  2.89258771  4.03724402  7.21657327 -0.00817804  0.12752201  0.5011137
  0.57801364  1.22549492  1.51142566  2.0681936   2.50864883  2.87360785
  4.10901508 -0.00817804  0.12752201  0.5011137   0.57801364  1.22549492
  1.51142566  2.0681936   2.50864883  2.87360785  4.10901508 -3.78281608
 -0.13179923  0.05875648  0.1313344   0.18493141  0.43151779  0.61327006
  0.81944546  1.07881484  1.60817361  2.16878404  2.6080381   2.89366488
  4.42960332  6.8640232  -0.07803323  0.09703611  0.31106583  0.51087683
  0.84397714  1.35039975  1.8973087   2.11120279  2.56724932  3.96158368
 -0.07803323  0.09703611  0.31106583  0.51087683  0.84397714  1.35039975
  1.8973087   2.11120279  2.56724932  3.96158368  0.29687977  0.73344035
  1.31929065  1.80737331  2.32044894  3.92141271  0.29688026  0.73344002
  1.31929597  1.80737261  2.32044789  3.92140115  0.84377155  2.06940472
  2.34897019  0.84377155  2.06940472  2.34897019  0.39146533  0.99386268
  1.37761989  2.3031783   2.52032911  3.9657331   0.39146476  0.99386326
  1.37761428  2.303178    2.5203376   3.96574343  0.75208462  1.82432266
  2.29670682  0.75208462  1.82432266  2.29670682  1.91332198  1.91335167
  1.95434763  1.95431723]
nelec by numeric integration = [4.00000009 4.00000009]
    CPU time for vxc      0.10 sec, wall time      0.24 sec
    CPU time for df-vj      0.08 sec, wall time      0.14 sec
E1 = -44.89846387907758  Ecoul = 17.59165795367549  Exc = -4.60383428521871
Extra cycle  E= -28.4598638073896  delta_E= -2.56e-13  |g|= 2.2e-06  |ddm|= 7.86e-06
    CPU time for scf_cycle      1.82 sec, wall time      4.64 sec
    CPU time for SCF      1.82 sec, wall time      4.64 sec
converged SCF energy = -28.4598638073896
Using Python 3.x
Wavefunction successfully saved to QMCPACK HDF5 Format
Use: "convert4qmc -pyscf  scf.h5" to generate QMCPACK input files
