  Input file(s): opt.in.xml 

=====================================================
                    QMCPACK 3.11.9

       (c) Copyright 2003-  QMCPACK developers

                    Please cite:
 J. Kim et al. J. Phys. Cond. Mat. 30 195901 (2018)
      https://doi.org/10.1088/1361-648X/aab9c3

  Git branch: develop
  Last git commit: 1e04b4793bbdadcd1bcdf36287c3837f2cf87452-dirty
  Last git commit date: Thu Oct 7 17:34:02 2021 -0500
  Last git commit subject: Merge pull request #3518 from williamfgc/ci-afqmc-docs
=====================================================
  Global options 

  Total number of MPI ranks = 16
  Number of MPI groups      = 1
  MPI group ID              = 0
  Number of ranks in group  = 16
  MPI ranks per node        = 16
  OMP 1st level threads     = 1
  OMP nested threading disabled or only 1 thread on the 2nd level

  Precision used in this calculation, see definitions in the manual:
  Base precision      = double
  Full precision      = double

  CPU only build
  Timer build option is enabled. Current timer level is coarse

  Input XML = opt.in.xml

  Project = opt
  date    = 2021-10-21 23:43:24 CDT
  host    = abenali


 Random Number
 -------------
  Offset for the random number seeds from input file (mod 1024): 42

  Range of prime numbers to use as seeds over processors and threads = 193-281


 Lattice
 -------
  Lattice is not specified for the Open BC. Add a huge box.
  Simulation cell radius   = 5000000000.000000 bohr
  Wigner-Seitz cell radius = 5000000000.000000 bohr


 Particle Set
 ------------
  Name: ion0   Offload : 

  Initializing the lattice by the global supercell
  All the species have the same mass 1.000000
  Particle set size: 2


 Particle Set
 ------------
  Name: e   Offload : 

  Initializing the lattice by the global supercell
  All the species have the same mass 1.000000
  Particle set size: 8


 Many-body wavefunction
 -------------------
  Name: psi0   Tasking: no

WARNING !!!!!!! Deprecated input style: creating SPO set inside determinantset. Support for this usage will soon be removed. SPO sets should be built outside.
WARNING !!!!!!! Deprecated input style: missing basisset element. LCAO needs an explicit basisset XML element. Fallback on loading an implicit one.
  LCAO: SoaAtomicBasisSet<MultiQuintic,1>
Reading BasisSet from HDF5 file:../SCF/scf.h5
<input node="atomicBasisSet" name="gaussia" expandYlm="pyscf" angular="spherical" elementType="Be" normalized="no" type="Numerical" expM="1" />
  AO BasisSet for Be
   Spherical Harmonics contain (-1)^m factor
   Angular momentum m expanded as -l, ... ,l, with the exception of L=1 (1,-1,0)
   Grid is created by the input parameters in h5
    Using log grid ri = 0.000001 rf = 100.000000 npts = 1001
   R(n,l,m,s) 0 0 0 0
   R(n,l,m,s) 1 0 0 0
   R(n,l,m,s) 2 0 0 0
   R(n,l,m,s) 3 0 0 0
   R(n,l,m,s) 4 0 0 0
   R(n,l,m,s) 5 1 0 0
   R(n,l,m,s) 6 1 0 0
   R(n,l,m,s) 7 1 0 0
   R(n,l,m,s) 8 1 0 0
   R(n,l,m,s) 9 2 0 0
   R(n,l,m,s) 10 2 0 0
   R(n,l,m,s) 11 2 0 0
   R(n,l,m,s) 12 3 0 0
   R(n,l,m,s) 13 3 0 0
   R(n,l,m,s) 14 4 0 0
Expanding Ylm as L=1 as (1,-1,0) and L>1 as -l,-l+1,...,l-1,l
   Adding 1 spherical orbitals
   Adding 1 spherical orbitals
   Adding 1 spherical orbitals
   Adding 1 spherical orbitals
   Adding 1 spherical orbitals
   Adding 3 spherical orbitals
   Adding 3 spherical orbitals
   Adding 3 spherical orbitals
   Adding 3 spherical orbitals
   Adding 5 spherical orbitals
   Adding 5 spherical orbitals
   Adding 5 spherical orbitals
   Adding 7 spherical orbitals
   Adding 7 spherical orbitals
   Adding 9 spherical orbitals
  Setting cutoff radius 1675979706721.165283

   Maximum Angular Momentum  = 4
   Number of Radial functors = 15
   Basis size                = 55

  Created SPOSet builder named 'LCAOBSet' of type molecularorbital

   Single Slater determinant
   -------------------------

     Determinant
     -----------
      Name: updet   Spin group: 0   SPO name: updet

WARNING !!!!!!! Deprecated input style: creating SPO set inside determinantset. Support for this usage will soon be removed. SPO sets should be built outside.
      Create a new SPO set updet

     Single particle orbitals (SPO)
     ------------------------------
      Name:    Type: LCAO   Builder class name: LCAOrbitalBuilder

WARNING SPOSet object name not given in the input!
        Using cusp correction.
Reading cusp info from : ../SCF/updet.cuspInfo.xml
Found precomputed cusp data for spo set: updet
WARNING SPOSet object doesn't have a name.
      Setting delay_rank to default value 1
      Using rank-1 Sherman-Morrison Fahy update (SM1)
      Running on CPU.


     Determinant
     -----------
      Name: downdet   Spin group: 1   SPO name: downdet

WARNING !!!!!!! Deprecated input style: creating SPO set inside determinantset. Support for this usage will soon be removed. SPO sets should be built outside.
      Create a new SPO set downdet

     Single particle orbitals (SPO)
     ------------------------------
      Name:    Type: LCAO   Builder class name: LCAOrbitalBuilder

WARNING SPOSet object name not given in the input!
        Using cusp correction.
Reading cusp info from : ../SCF/downdet.cuspInfo.xml
Found precomputed cusp data for spo set: downdet
WARNING SPOSet object doesn't have a name.
      Setting delay_rank to default value 1
      Using rank-1 Sherman-Morrison Fahy update (SM1)
      Running on CPU.

  Added a fermionic WaveFunctionComponent SlaterDet

   Jastrow
   -------
    Name: J1   Type: One-Body   Function: bspline

    Radial function for element: Be - e
     Number of parameters: 12
     Cusp: 0.000000
     Cutoff radius: 6.000000

       Name                        Value Type Recompute Use Index
     ------ ---------------------------- ---- --------- --- -----
      eBe_0                -1.022558e+00    1         1  ON     0
      eBe_1                -9.397769e-01    1         1  ON     1
      eBe_2                -8.497646e-01    1         1  ON     2
      eBe_3                -7.381492e-01    1         1  ON     3
      eBe_4                -6.323927e-01    1         1  ON     4
      eBe_5                -5.316603e-01    1         1  ON     5
      eBe_6                -4.332585e-01    1         1  ON     6
      eBe_7                -3.397730e-01    1         1  ON     7
      eBe_8                -2.551265e-01    1         1  ON     8
      eBe_9                -1.823413e-01    1         1  ON     9
     eBe_10                -1.129420e-01    1         1  ON    10
     eBe_11                -5.707620e-02    1         1  ON    11


   Jastrow
   -------
    Name: J2   Type: Two-Body   Function: bspline

    Radial function for species: u - u
     Number of parameters: 16
     Cusp: -0.25
     Cutoff radius: 8

      Name                        Value Type Recompute Use Index
     ----- ---------------------------- ---- --------- --- -----
      uu_0                 2.913132e-01    1         1  ON     0
      uu_1                 2.094417e-01    1         1  ON     1
      uu_2                 1.624238e-01    1         1  ON     2
      uu_3                 1.247943e-01    1         1  ON     3
      uu_4                 9.916048e-02    1         1  ON     4
      uu_5                 7.672414e-02    1         1  ON     5
      uu_6                 5.707522e-02    1         1  ON     6
      uu_7                 3.712943e-02    1         1  ON     7
      uu_8                 2.084017e-02    1         1  ON     8
      uu_9                 6.184278e-03    1         1  ON     9
     uu_10                -6.079311e-03    1         1  ON    10
     uu_11                -1.697619e-02    1         1  ON    11
     uu_12                -2.145398e-02    1         1  ON    12
     uu_13                -1.516529e-02    1         1  ON    13
     uu_14                -1.072618e-02    1         1  ON    14
     uu_15                -5.074411e-03    1         1  ON    15

    Radial function for species: u - d
     Number of parameters: 16
     Cusp: -0.5
     Cutoff radius: 8

      Name                        Value Type Recompute Use Index
     ----- ---------------------------- ---- --------- --- -----
      ud_0                 6.990667e-01    1         1  ON     0
      ud_1                 5.461451e-01    1         1  ON     1
      ud_2                 4.556887e-01    1         1  ON     2
      ud_3                 3.962180e-01    1         1  ON     3
      ud_4                 3.394572e-01    1         1  ON     4
      ud_5                 2.899829e-01    1         1  ON     5
      ud_6                 2.442415e-01    1         1  ON     6
      ud_7                 2.013407e-01    1         1  ON     7
      ud_8                 1.585024e-01    1         1  ON     8
      ud_9                 1.210182e-01    1         1  ON     9
     ud_10                 9.062216e-02    1         1  ON    10
     ud_11                 6.321845e-02    1         1  ON    11
     ud_12                 4.281034e-02    1         1  ON    12
     ud_13                 3.409723e-02    1         1  ON    13
     ud_14                 2.521976e-02    1         1  ON    14
     ud_15                 1.827251e-02    1         1  ON    15


   Jastrow
   -------
    Name: J3   Type: eeI   Function: polynomial

     Ion: Be   electron-electron: u - u
      Number of parameters for e-e: 3, for e-I: 3
      Cutoff radius: 5

Expected 26 parameters, but found 0 in PolynomialFunctor3D.
         Name                        Value Type Recompute Use Index
      ------- ---------------------------- ---- --------- --- -----
       uuBe_0                 0.000000e+00    1         1  ON     0
       uuBe_1                 0.000000e+00    1         1  ON     1
       uuBe_2                 0.000000e+00    1         1  ON     2
       uuBe_3                 0.000000e+00    1         1  ON     3
       uuBe_4                 0.000000e+00    1         1  ON     4
       uuBe_5                 0.000000e+00    1         1  ON     5
       uuBe_6                 0.000000e+00    1         1  ON     6
       uuBe_7                 0.000000e+00    1         1  ON     7
       uuBe_8                 0.000000e+00    1         1  ON     8
       uuBe_9                 0.000000e+00    1         1  ON     9
      uuBe_10                 0.000000e+00    1         1  ON    10
      uuBe_11                 0.000000e+00    1         1  ON    11
      uuBe_12                 0.000000e+00    1         1  ON    12
      uuBe_13                 0.000000e+00    1         1  ON    13
      uuBe_14                 0.000000e+00    1         1  ON    14
      uuBe_15                 0.000000e+00    1         1  ON    15
      uuBe_16                 0.000000e+00    1         1  ON    16
      uuBe_17                 0.000000e+00    1         1  ON    17
      uuBe_18                 0.000000e+00    1         1  ON    18
      uuBe_19                 0.000000e+00    1         1  ON    19
      uuBe_20                 0.000000e+00    1         1  ON    20
      uuBe_21                 0.000000e+00    1         1  ON    21
      uuBe_22                 0.000000e+00    1         1  ON    22
      uuBe_23                 0.000000e+00    1         1  ON    23
      uuBe_24                 0.000000e+00    1         1  ON    24
      uuBe_25                 0.000000e+00    1         1  ON    25

     Ion: Be   electron-electron: u - d
      Number of parameters for e-e: 3, for e-I: 3
      Cutoff radius: 5

Expected 26 parameters, but found 0 in PolynomialFunctor3D.
         Name                        Value Type Recompute Use Index
      ------- ---------------------------- ---- --------- --- -----
       udBe_0                 0.000000e+00    1         1  ON     0
       udBe_1                 0.000000e+00    1         1  ON     1
       udBe_2                 0.000000e+00    1         1  ON     2
       udBe_3                 0.000000e+00    1         1  ON     3
       udBe_4                 0.000000e+00    1         1  ON     4
       udBe_5                 0.000000e+00    1         1  ON     5
       udBe_6                 0.000000e+00    1         1  ON     6
       udBe_7                 0.000000e+00    1         1  ON     7
       udBe_8                 0.000000e+00    1         1  ON     8
       udBe_9                 0.000000e+00    1         1  ON     9
      udBe_10                 0.000000e+00    1         1  ON    10
      udBe_11                 0.000000e+00    1         1  ON    11
      udBe_12                 0.000000e+00    1         1  ON    12
      udBe_13                 0.000000e+00    1         1  ON    13
      udBe_14                 0.000000e+00    1         1  ON    14
      udBe_15                 0.000000e+00    1         1  ON    15
      udBe_16                 0.000000e+00    1         1  ON    16
      udBe_17                 0.000000e+00    1         1  ON    17
      udBe_18                 0.000000e+00    1         1  ON    18
      udBe_19                 0.000000e+00    1         1  ON    19
      udBe_20                 0.000000e+00    1         1  ON    20
      udBe_21                 0.000000e+00    1         1  ON    21
      udBe_22                 0.000000e+00    1         1  ON    22
      udBe_23                 0.000000e+00    1         1  ON    23
      udBe_24                 0.000000e+00    1         1  ON    24
      udBe_25                 0.000000e+00    1         1  ON    25

  QMCHamiltonian::addOperator Kinetic to H, physical Hamiltonian 

 Hamiltonian and observables
 ---------------------------
  Name: h0

  QMCHamiltonian::addOperator ElecElec to H, physical Hamiltonian 
QMCHamiltonian::addOperatorType added type coulomb named ElecElec
  QMCHamiltonian::addOperator IonIon to H, physical Hamiltonian 
QMCHamiltonian::addOperatorType added type coulomb named IonIon
  QMCHamiltonian::addOperator ElecIon to H, physical Hamiltonian 
QMCHamiltonian::addOperatorType added type coulomb named ElecIon

  QMCHamiltonian::add2WalkerProperty added
    4 to P::PropertyList 
    0 to P::Collectables 
    starting Index of the observables in P::PropertyList = 9
ParticleSetPool::randomize 1 ParticleSet.
<init source="ion0" target="e">
</init>
  Initialization Execution time = 0.1415 secs
=========================================================
 Summary of QMC systems 
=========================================================
ParticleSetPool has: 

  ParticleSet 'e' contains 8 particles :  u(4) d(4)

    u  5.4567462879e-01  1.1988757063e+00 -9.0826000696e-01
    u -1.4692950359e+00 -1.0839144827e-01 -6.2403797277e-01
    u  5.8961738038e+00 -3.2605087954e-01 -9.3126776613e-01
    u  5.4250078288e+00  6.2887151030e-01  1.2421727655e+00
    d  1.2294858156e+00  7.3690730451e-01 -7.1086725473e-01
    d -3.4676133570e-01 -1.3269143703e+00  8.2404783227e-01
    d  4.6578601394e+00 -1.2450998705e+00 -1.0046272547e+00
    d  3.1715465912e+00  6.1079977841e-01  2.0107621546e-01

  Distance table for dissimilar particles (A-B):
    source: ion0  target: e
    Using structure-of-arrays (SoA) data layout
    Distance computations use open boundary conditions in 3D.

  Distance table for similar particles (A-A):
    source/target: e
    Using structure-of-arrays (SoA) data layout
    Distance computations use open boundary conditions in 3D.


  ParticleSet 'ion0' contains 2 particles :  Be(2)

    Be  0.0000000000e+00  0.0000000000e+00  0.0000000000e+00
    Be  4.6366377100e+00  0.0000000000e+00  0.0000000000e+00

  Distance table for similar particles (A-A):
    source/target: ion0
    Using structure-of-arrays (SoA) data layout
    Distance computations use open boundary conditions in 3D.


  Hamiltonian h0
  Kinetic         Kinetic energy
  ElecElec        CoulombAB source=e

  IonIon          CoulombAA source/target ion0

  ElecIon         CoulombAA source/target ion0


Loop execution max-interations = 4

=========================================================
  Start QMCFixedSampleLinearOptimize
  File Root opt.s000 append = no 
=========================================================
  Skip QMCDriver::putQMCInfo 
  Resetting Properties of the walkers 1 x 13
  Adding 1 walkers to 0 existing sets
  Total number of walkers: 1.6000000000e+01
  Total weight: 1.6000000000e+01

=========================================================
  Start VMC
  File Root opt.s000 append = no 
=========================================================
Resetting walkers
  Using the current 1 walkers.
  Total number of walkers: 1.6000000000e+01
  Total weight: 1.6000000000e+01
  Resetting Properties of the walkers 1 x 13

<vmc function="put">
  qmc_counter=0  my_counter=0
  time step      = 1.0000000000e-01
  blocks         = 20
  steps          = 80
  substeps       = 10
  current        = 0
  target samples = 2.5600000000e+04
  walkers/mpi    = 1

  stepsbetweensamples = 1
<parameter name="blocks">20</parameter>
<parameter name="blocks_between_recompute">0</parameter>
<parameter name="check_properties">100</parameter>
<parameter name="checkproperties">100</parameter>
<parameter name="current">0</parameter>
<parameter name="dmcwalkersperthread">1.6000000000e+03</parameter>
<parameter name="max_seconds">360000</parameter>
<parameter name="maxcpusecs">360000</parameter>
<parameter name="record_configs">0</parameter>
<parameter name="record_walkers">1</parameter>
<parameter name="recordconfigs">0</parameter>
<parameter name="recordwalkers">1</parameter>
<parameter name="samples">2.5600000000e+04</parameter>
<parameter name="samplesperthread">1.6000000000e+03</parameter>
<parameter name="spinmass">1.0000000000e+00</parameter>
<parameter name="steps">80</parameter>
<parameter name="stepsbetweensamples">1</parameter>
<parameter name="store_configs">0</parameter>
<parameter name="storeconfigs">0</parameter>
<parameter name="sub_steps">10</parameter>
<parameter name="substeps">10</parameter>
<parameter name="tau">1.0000000000e-01</parameter>
<parameter name="time_step">1.0000000000e-01</parameter>
<parameter name="timestep">1.0000000000e-01</parameter>
<parameter name="use_drift">no</parameter>
<parameter name="usedrift">no</parameter>
<parameter name="walkers">1</parameter>
<parameter name="warmup_steps">10</parameter>
<parameter name="warmupsteps">10</parameter>
  DumpConfig==false Nothing (configurations, state) will be saved.
  Walker Samples are dumped every 1 steps.
</vmc>
  Set drift_modifier UNR parameter a = 1.0000000000e+00
  Adding a default LocalEnergyEstimator for the MainEstimator 
 Using QMCCostFunction::QMCCostFunction
   Going to include the derivatives of NonLocalECP
 Using Default Cost Function: Cost = <|E-E_ff|^2>
  Set drift_modifier UNR parameter a = 1.0000000000e+00
  Adding a default LocalEnergyEstimator for the MainEstimator 
<optimization-report>
<vmc stage="main" blocks="20">
  Initial partition of walkers 0 1 

  Using Particle by Particle moves
  Walker moves without drift
  Total Sample Size   =25600
  Walker distribution on root = 0 1 
========================================================================
--- Memory usage report : Memory Usage after the buffer registration ---
========================================================================
Available memory on node 0, free + buffers :   16215 MiB
Memory footprint by rank 0 on node 0       :      88 MiB
========================================================================
  Anonymous Buffer size per walker : 19232 Bytes.
MEMORY increase 0 MB VMC::resetRun
====================================================
  SimpleFixedNodeBranch::finalize after a VMC block
    QMC counter        = 0
    time step          = 0.1
    reference energy   = -29.2552
    reference variance = 0.462909
====================================================
  Execution time = 9.7204e-01
</vmc>
<opt stage="setup">
  <log>
   Reading configurations from h5FileRoot opt.s000
  QMCCostFunction is created with 1 threads.
  Using Nonlocal PP in Opt: NonLocalECP
   Number of samples loaded to each thread : 1600 
  VMC Eavg = -2.9255e+01
  VMC Evar = 4.6291e-01
  Total weights = 2.5600e+04
  Execution time = 1.9363e-01
  </log>
</opt>
<opt stage="main" walkers="25600">
  <log>

*****************************************
Building overlap and Hamiltonian matrices
*****************************************

Among totally 96 optimized parameters, largest LM parameter change : 1.2347e-01 at parameter 28

******************************************************************************
Init Cost =  -2.6283e+01    New Cost =  -2.6327e+01  Delta Cost =  -4.3269e-02
******************************************************************************

The new set of parameters is valid. Updating the trial wave function!

*****************************************************************************
Applying the update for shift_i =   1.0000e-02     and shift_s =   2.5000e-01
*****************************************************************************
  Execution time = 2.6402e-01
  </log>
  <optVariables href="opt.s000.opt.xml">
  eBe_0                -1.134058e+00 1 1  ON 0
  eBe_1                -1.019670e+00 1 1  ON 1
  eBe_2                -8.781635e-01 1 1  ON 2
  eBe_3                -7.842089e-01 1 1  ON 3
  eBe_4                -6.835855e-01 1 1  ON 4
  eBe_5                -4.965691e-01 1 1  ON 5
  eBe_6                -4.161405e-01 1 1  ON 6
  eBe_7                -3.268459e-01 1 1  ON 7
  eBe_8                -2.495613e-01 1 1  ON 8
  eBe_9                -1.770831e-01 1 1  ON 9
 eBe_10                -1.102242e-01 1 1  ON 10
 eBe_11                -5.631756e-02 1 1  ON 11
   uu_0                 3.007101e-01 1 1  ON 12
   uu_1                 2.232124e-01 1 1  ON 13
   uu_2                 1.637687e-01 1 1  ON 14
   uu_3                 1.262161e-01 1 1  ON 15
   uu_4                 9.613475e-02 1 1  ON 16
   uu_5                 7.472648e-02 1 1  ON 17
   uu_6                 5.802369e-02 1 1  ON 18
   uu_7                 4.084945e-02 1 1  ON 19
   uu_8                 2.475391e-02 1 1  ON 20
   uu_9                 9.218385e-03 1 1  ON 21
  uu_10                -2.176132e-03 1 1  ON 22
  uu_11                -1.275239e-02 1 1  ON 23
  uu_12                -1.863583e-02 1 1  ON 24
  uu_13                -1.441890e-02 1 1  ON 25
  uu_14                -1.005195e-02 1 1  ON 26
  uu_15                -6.050859e-03 1 1  ON 27
   ud_0                 8.225365e-01 1 1  ON 28
   ud_1                 6.517532e-01 1 1  ON 29
   ud_2                 5.176146e-01 1 1  ON 30
   ud_3                 4.088016e-01 1 1  ON 31
   ud_4                 3.205602e-01 1 1  ON 32
   ud_5                 2.698166e-01 1 1  ON 33
   ud_6                 2.298870e-01 1 1  ON 34
   ud_7                 1.891905e-01 1 1  ON 35
   ud_8                 1.512644e-01 1 1  ON 36
   ud_9                 1.166390e-01 1 1  ON 37
  ud_10                 8.750831e-02 1 1  ON 38
  ud_11                 6.135127e-02 1 1  ON 39
  ud_12                 4.074762e-02 1 1  ON 40
  ud_13                 3.199749e-02 1 1  ON 41
  ud_14                 2.182267e-02 1 1  ON 42
  ud_15                 1.429858e-02 1 1  ON 43
 uuBe_0                -4.809328e-06 1 1  ON 44
 uuBe_1                -5.182957e-03 1 1  ON 45
 uuBe_2                 3.993821e-03 1 1  ON 46
 uuBe_3                 4.326869e-03 1 1  ON 47
 uuBe_4                 9.355988e-04 1 1  ON 48
 uuBe_5                 7.916225e-04 1 1  ON 49
 uuBe_6                -9.627054e-03 1 1  ON 50
 uuBe_7                 8.468456e-03 1 1  ON 51
 uuBe_8                 6.251188e-03 1 1  ON 52
 uuBe_9                 2.630021e-03 1 1  ON 53
uuBe_10                 6.519512e-03 1 1  ON 54
uuBe_11                -1.296378e-02 1 1  ON 55
uuBe_12                 1.381126e-04 1 1  ON 56
uuBe_13                 6.845702e-04 1 1  ON 57
uuBe_14                 1.584229e-03 1 1  ON 58
uuBe_15                -6.691144e-05 1 1  ON 59
uuBe_16                -1.376012e-03 1 1  ON 60
uuBe_17                 9.423310e-04 1 1  ON 61
uuBe_18                -2.354060e-03 1 1  ON 62
uuBe_19                -2.770998e-04 1 1  ON 63
uuBe_20                -2.400796e-03 1 1  ON 64
uuBe_21                 7.259316e-03 1 1  ON 65
uuBe_22                -1.974101e-03 1 1  ON 66
uuBe_23                 3.528149e-03 1 1  ON 67
uuBe_24                -5.457845e-03 1 1  ON 68
uuBe_25                 1.899029e-03 1 1  ON 69
 udBe_0                -2.228593e-03 1 1  ON 70
 udBe_1                -2.765451e-03 1 1  ON 71
 udBe_2                 1.060026e-02 1 1  ON 72
 udBe_3                -1.260847e-03 1 1  ON 73
 udBe_4                -1.883307e-03 1 1  ON 74
 udBe_5                -1.484279e-04 1 1  ON 75
 udBe_6                -2.017941e-03 1 1  ON 76
 udBe_7                -3.434737e-03 1 1  ON 77
 udBe_8                 2.278990e-02 1 1  ON 78
 udBe_9                 3.434985e-03 1 1  ON 79
udBe_10                 2.552471e-03 1 1  ON 80
udBe_11                -1.260888e-02 1 1  ON 81
udBe_12                -1.295376e-02 1 1  ON 82
udBe_13                -8.042385e-04 1 1  ON 83
udBe_14                 8.222832e-03 1 1  ON 84
udBe_15                 1.476431e-03 1 1  ON 85
udBe_16                -4.944554e-03 1 1  ON 86
udBe_17                 6.731488e-03 1 1  ON 87
udBe_18                 6.886761e-03 1 1  ON 88
udBe_19                 7.141887e-03 1 1  ON 89
udBe_20                -4.781659e-03 1 1  ON 90
udBe_21                 7.832293e-04 1 1  ON 91
udBe_22                -1.456838e-03 1 1  ON 92
udBe_23                 8.116801e-03 1 1  ON 93
udBe_24                -3.986155e-03 1 1  ON 94
udBe_25                 8.046216e-04 1 1  ON 95
  </optVariables>
   Restore the number of walkers to 1, removing 0 walkers.
</opt>
</optimization-report>
  QMC Execution time = 1.442 secs
BRANCH resetRun
  Continue with the same input as the previous block.
 SimpleFixedNodeBranch::resetRun detected changes in <parameter>'s 
 BranchMode : 0000001100 0000001100
 iParam (old):                 10                 1                 0                 0                 0                 0                 1                 0
 iParam (new):                 10                 1                 0                 0                 0                 0                 1                 0
 vParam (old):                0.1               0.1                 1                 1                 1                 1                 1                 1                 1                 0                 0                 1                10                 1                 1                 1                 1
 vParam (new):                0.1               0.1                 1                 1                 1                 1                 1                 1                 1                 0                 0                 1                10                 1                 1                 1                 1

=========================================================
  Start QMCFixedSampleLinearOptimize
  File Root opt.s001 append = no 
=========================================================
  Skip QMCDriver::putQMCInfo 
  Resetting Properties of the walkers 1 x 13

=========================================================
  Start VMC
  File Root opt.s001 append = no 
=========================================================
Using existing walkers 
  Resetting Properties of the walkers 1 x 13

<vmc function="put">
  qmc_counter=1  my_counter=0
  time step      = 0.1
  blocks         = 20
  steps          = 80
  substeps       = 10
  current        = 0
  target samples = 25600
  walkers/mpi    = 1

  stepsbetweensamples = 1
<parameter name="blocks">20</parameter>
<parameter name="blocks_between_recompute">0</parameter>
<parameter name="check_properties">100</parameter>
<parameter name="checkproperties">100</parameter>
<parameter name="current">0</parameter>
<parameter name="dmcwalkersperthread">1600</parameter>
<parameter name="max_seconds">360000</parameter>
<parameter name="maxcpusecs">360000</parameter>
<parameter name="record_configs">0</parameter>
<parameter name="record_walkers">1</parameter>
<parameter name="recordconfigs">0</parameter>
<parameter name="recordwalkers">1</parameter>
<parameter name="samples">25600</parameter>
<parameter name="samplesperthread">1600</parameter>
<parameter name="spinmass">1</parameter>
<parameter name="steps">80</parameter>
<parameter name="stepsbetweensamples">1</parameter>
<parameter name="store_configs">0</parameter>
<parameter name="storeconfigs">0</parameter>
<parameter name="sub_steps">10</parameter>
<parameter name="substeps">10</parameter>
<parameter name="tau">0.1</parameter>
<parameter name="time_step">0.1</parameter>
<parameter name="timestep">0.1</parameter>
<parameter name="use_drift">no</parameter>
<parameter name="usedrift">no</parameter>
<parameter name="walkers">1</parameter>
<parameter name="warmup_steps">10</parameter>
<parameter name="warmupsteps">10</parameter>
  DumpConfig==false Nothing (configurations, state) will be saved.
  Walker Samples are dumped every 1 steps.
</vmc>
    Restarting, cummulative properties:
      energy     = -29.25524316
      variance   = 0
      r2accepted = 1e-10
      r2proposed = 1e-10
  Set drift_modifier UNR parameter a = 1
  Adding a default LocalEnergyEstimator for the MainEstimator 
 Using QMCCostFunction::QMCCostFunction
   Going to include the derivatives of NonLocalECP
 Using Default Cost Function: Cost = <|E-E_ff|^2>
  Set drift_modifier UNR parameter a = 1.0000000000e+00
<optimization-report>
<vmc stage="main" blocks="20">
  Cannot make clones again. Use existing 1 clones
  Initial partition of walkers 0 1 

  Using Particle by Particle moves
  Walker moves without drift
  Total Sample Size   =25600
  Walker distribution on root = 0 1 
========================================================================
--- Memory usage report : Memory Usage after the buffer registration ---
========================================================================
Available memory on node 0, free + buffers :   16135 MiB
Memory footprint by rank 0 on node 0       :     100 MiB
========================================================================
  Anonymous Buffer size per walker : 19232 Bytes.
MEMORY increase 0 MB VMC::resetRun
====================================================
  SimpleFixedNodeBranch::finalize after a VMC block
    QMC counter        = 1
    time step          = 0.1
    reference energy   = -29.2741
    reference variance = 0.20014
====================================================
  Execution time = 9.6546e-01
</vmc>
<opt stage="setup">
  <log>
   Reading configurations from h5FileRoot opt.s001
  QMCCostFunction is created with 1 threads.
  Using Nonlocal PP in Opt: NonLocalECP
   Number of samples loaded to each thread : 1600 
  VMC Eavg = -2.9274e+01
  VMC Evar = 2.0014e-01
  Total weights = 2.5600e+04
  Execution time = 1.9502e-01
  </log>
</opt>
<opt stage="main" walkers="25600">
  <log>

*****************************************
Building overlap and Hamiltonian matrices
*****************************************

Among totally 96 optimized parameters, largest LM parameter change : 7.4810e-02 at parameter 0

******************************************************************************
Init Cost =  -2.6327e+01    New Cost =  -2.6327e+01  Delta Cost =  -2.4802e-04
******************************************************************************

The new set of parameters is valid. Updating the trial wave function!

*****************************************************************************
Applying the update for shift_i =   1.0000e-02     and shift_s =   6.2500e-02
*****************************************************************************
  Execution time = 2.6168e-01
  </log>
  <optVariables href="opt.s001.opt.xml">
  eBe_0                -1.208868e+00 1 1  ON 0
  eBe_1                -1.094144e+00 1 1  ON 1
  eBe_2                -9.343300e-01 1 1  ON 2
  eBe_3                -8.276580e-01 1 1  ON 3
  eBe_4                -7.177853e-01 1 1  ON 4
  eBe_5                -5.105582e-01 1 1  ON 5
  eBe_6                -4.334085e-01 1 1  ON 6
  eBe_7                -3.384034e-01 1 1  ON 7
  eBe_8                -2.564249e-01 1 1  ON 8
  eBe_9                -1.799286e-01 1 1  ON 9
 eBe_10                -1.109684e-01 1 1  ON 10
 eBe_11                -5.518835e-02 1 1  ON 11
   uu_0                 3.089693e-01 1 1  ON 12
   uu_1                 2.341156e-01 1 1  ON 13
   uu_2                 1.688819e-01 1 1  ON 14
   uu_3                 1.284202e-01 1 1  ON 15
   uu_4                 9.726340e-02 1 1  ON 16
   uu_5                 7.713056e-02 1 1  ON 17
   uu_6                 6.019739e-02 1 1  ON 18
   uu_7                 4.201788e-02 1 1  ON 19
   uu_8                 2.648910e-02 1 1  ON 20
   uu_9                 1.176057e-02 1 1  ON 21
  uu_10                -8.005327e-04 1 1  ON 22
  uu_11                -1.166816e-02 1 1  ON 23
  uu_12                -1.904712e-02 1 1  ON 24
  uu_13                -1.448954e-02 1 1  ON 25
  uu_14                -9.391787e-03 1 1  ON 26
  uu_15                -5.499361e-03 1 1  ON 27
   ud_0                 8.973309e-01 1 1  ON 28
   ud_1                 7.059902e-01 1 1  ON 29
   ud_2                 5.466091e-01 1 1  ON 30
   ud_3                 4.226289e-01 1 1  ON 31
   ud_4                 3.257034e-01 1 1  ON 32
   ud_5                 2.730190e-01 1 1  ON 33
   ud_6                 2.336556e-01 1 1  ON 34
   ud_7                 1.928919e-01 1 1  ON 35
   ud_8                 1.543355e-01 1 1  ON 36
   ud_9                 1.192578e-01 1 1  ON 37
  ud_10                 8.944207e-02 1 1  ON 38
  ud_11                 6.325537e-02 1 1  ON 39
  ud_12                 4.221944e-02 1 1  ON 40
  ud_13                 3.330607e-02 1 1  ON 41
  ud_14                 2.296634e-02 1 1  ON 42
  ud_15                 1.387271e-02 1 1  ON 43
 uuBe_0                -2.638184e-03 1 1  ON 44
 uuBe_1                -2.475472e-03 1 1  ON 45
 uuBe_2                 1.084248e-02 1 1  ON 46
 uuBe_3                 2.648342e-03 1 1  ON 47
 uuBe_4                -1.740648e-03 1 1  ON 48
 uuBe_5                 5.422605e-04 1 1  ON 49
 uuBe_6                -1.232518e-03 1 1  ON 50
 uuBe_7                 7.271222e-03 1 1  ON 51
 uuBe_8                 1.309231e-02 1 1  ON 52
 uuBe_9                 5.487006e-04 1 1  ON 53
uuBe_10                 4.241997e-03 1 1  ON 54
uuBe_11                -1.381132e-02 1 1  ON 55
uuBe_12                -2.934292e-03 1 1  ON 56
uuBe_13                 6.271317e-05 1 1  ON 57
uuBe_14                 1.935425e-03 1 1  ON 58
uuBe_15                 3.407911e-04 1 1  ON 59
uuBe_16                -4.393103e-03 1 1  ON 60
uuBe_17                -5.699687e-04 1 1  ON 61
uuBe_18                -1.813655e-03 1 1  ON 62
uuBe_19                 2.367506e-03 1 1  ON 63
uuBe_20                 3.808160e-03 1 1  ON 64
uuBe_21                 5.359130e-03 1 1  ON 65
uuBe_22                -2.256643e-03 1 1  ON 66
uuBe_23                -1.433543e-03 1 1  ON 67
uuBe_24                -3.149392e-03 1 1  ON 68
uuBe_25                 1.572270e-03 1 1  ON 69
 udBe_0                -1.522403e-03 1 1  ON 70
 udBe_1                -2.787841e-03 1 1  ON 71
 udBe_2                 1.281448e-02 1 1  ON 72
 udBe_3                -1.714277e-03 1 1  ON 73
 udBe_4                -1.873831e-03 1 1  ON 74
 udBe_5                -1.959921e-04 1 1  ON 75
 udBe_6                -1.697453e-03 1 1  ON 76
 udBe_7                -4.569597e-03 1 1  ON 77
 udBe_8                 2.984797e-02 1 1  ON 78
 udBe_9                 2.767770e-03 1 1  ON 79
udBe_10                 3.341324e-03 1 1  ON 80
udBe_11                -1.751302e-02 1 1  ON 81
udBe_12                -1.703101e-02 1 1  ON 82
udBe_13                 6.227494e-04 1 1  ON 83
udBe_14                 1.186824e-02 1 1  ON 84
udBe_15                 1.729325e-03 1 1  ON 85
udBe_16                -3.726988e-03 1 1  ON 86
udBe_17                 1.060579e-02 1 1  ON 87
udBe_18                 1.204249e-02 1 1  ON 88
udBe_19                 9.178381e-03 1 1  ON 89
udBe_20                -8.139666e-03 1 1  ON 90
udBe_21                -6.176630e-04 1 1  ON 91
udBe_22                -1.536956e-03 1 1  ON 92
udBe_23                 1.105207e-02 1 1  ON 93
udBe_24                -4.718239e-03 1 1  ON 94
udBe_25                 9.074980e-04 1 1  ON 95
  </optVariables>
   Restore the number of walkers to 1, removing 0 walkers.
</opt>
</optimization-report>
  QMC Execution time = 1.441 secs
BRANCH resetRun
  Continue with the same input as the previous block.
 SimpleFixedNodeBranch::resetRun detected changes in <parameter>'s 
 BranchMode : 0000001100 0000001100
 iParam (old):                 10                 1                 1                 0                 0                 0                 1                 0
 iParam (new):                 10                 1                 1                 0                 0                 0                 1                 0
 vParam (old):                0.1               0.1                 1                 1                 1                 1                 1                 1                 1                 0                 0                 1                10                 1                 1                 1                 1
 vParam (new):                0.1               0.1                 1                 1                 1                 1                 1                 1                 1                 0                 0                 1                10                 1                 1                 1                 1

=========================================================
  Start QMCFixedSampleLinearOptimize
  File Root opt.s002 append = no 
=========================================================
  Skip QMCDriver::putQMCInfo 
  Resetting Properties of the walkers 1 x 13

=========================================================
  Start VMC
  File Root opt.s002 append = no 
=========================================================
Using existing walkers 
  Resetting Properties of the walkers 1 x 13

<vmc function="put">
  qmc_counter=2  my_counter=0
  time step      = 0.1
  blocks         = 20
  steps          = 80
  substeps       = 10
  current        = 0
  target samples = 25600
  walkers/mpi    = 1

  stepsbetweensamples = 1
<parameter name="blocks">20</parameter>
<parameter name="blocks_between_recompute">0</parameter>
<parameter name="check_properties">100</parameter>
<parameter name="checkproperties">100</parameter>
<parameter name="current">0</parameter>
<parameter name="dmcwalkersperthread">1600</parameter>
<parameter name="max_seconds">360000</parameter>
<parameter name="maxcpusecs">360000</parameter>
<parameter name="record_configs">0</parameter>
<parameter name="record_walkers">1</parameter>
<parameter name="recordconfigs">0</parameter>
<parameter name="recordwalkers">1</parameter>
<parameter name="samples">25600</parameter>
<parameter name="samplesperthread">1600</parameter>
<parameter name="spinmass">1</parameter>
<parameter name="steps">80</parameter>
<parameter name="stepsbetweensamples">1</parameter>
<parameter name="store_configs">0</parameter>
<parameter name="storeconfigs">0</parameter>
<parameter name="sub_steps">10</parameter>
<parameter name="substeps">10</parameter>
<parameter name="tau">0.1</parameter>
<parameter name="time_step">0.1</parameter>
<parameter name="timestep">0.1</parameter>
<parameter name="use_drift">no</parameter>
<parameter name="usedrift">no</parameter>
<parameter name="walkers">1</parameter>
<parameter name="warmup_steps">10</parameter>
<parameter name="warmupsteps">10</parameter>
  DumpConfig==false Nothing (configurations, state) will be saved.
  Walker Samples are dumped every 1 steps.
</vmc>
    Restarting, cummulative properties:
      energy     = -29.26468248
      variance   = 0
      r2accepted = 1e-10
      r2proposed = 1e-10
  Set drift_modifier UNR parameter a = 1
  Adding a default LocalEnergyEstimator for the MainEstimator 
 Using QMCCostFunction::QMCCostFunction
   Going to include the derivatives of NonLocalECP
 Using Default Cost Function: Cost = <|E-E_ff|^2>
  Set drift_modifier UNR parameter a = 1.0000000000e+00
<optimization-report>
<vmc stage="main" blocks="20">
  Cannot make clones again. Use existing 1 clones
  Initial partition of walkers 0 1 

  Using Particle by Particle moves
  Walker moves without drift
  Total Sample Size   =25600
  Walker distribution on root = 0 1 
========================================================================
--- Memory usage report : Memory Usage after the buffer registration ---
========================================================================
Available memory on node 0, free + buffers :   16135 MiB
Memory footprint by rank 0 on node 0       :     101 MiB
========================================================================
  Anonymous Buffer size per walker : 19232 Bytes.
MEMORY increase 0 MB VMC::resetRun
====================================================
  SimpleFixedNodeBranch::finalize after a VMC block
    QMC counter        = 2
    time step          = 0.1
    reference energy   = -29.2767
    reference variance = 0.207164
====================================================
  Execution time = 9.6978e-01
</vmc>
<opt stage="setup">
  <log>
   Reading configurations from h5FileRoot opt.s002
  QMCCostFunction is created with 1 threads.
  Using Nonlocal PP in Opt: NonLocalECP
   Number of samples loaded to each thread : 1600 
  VMC Eavg = -2.9277e+01
  VMC Evar = 2.0716e-01
  Total weights = 2.5600e+04
  Execution time = 1.9876e-01
  </log>
</opt>
<opt stage="main" walkers="25600">
  <log>

*****************************************
Building overlap and Hamiltonian matrices
*****************************************

Among totally 96 optimized parameters, largest LM parameter change : 4.2458e-02 at parameter 28

******************************************************************************
Init Cost =  -2.6328e+01    New Cost =  -2.6328e+01  Delta Cost =   6.2823e-04
******************************************************************************

The new set of parameters is valid. Updating the trial wave function!

*****************************************************************************
Applying the update for shift_i =   1.0000e-02     and shift_s =   1.5625e-02
*****************************************************************************
  Execution time = 2.6249e-01
  </log>
  <optVariables href="opt.s002.opt.xml">
  eBe_0                -1.248189e+00 1 1  ON 0
  eBe_1                -1.133956e+00 1 1  ON 1
  eBe_2                -9.718912e-01 1 1  ON 2
  eBe_3                -8.560175e-01 1 1  ON 3
  eBe_4                -7.309934e-01 1 1  ON 4
  eBe_5                -5.083529e-01 1 1  ON 5
  eBe_6                -4.340028e-01 1 1  ON 6
  eBe_7                -3.417588e-01 1 1  ON 7
  eBe_8                -2.601058e-01 1 1  ON 8
  eBe_9                -1.829840e-01 1 1  ON 9
 eBe_10                -1.120817e-01 1 1  ON 10
 eBe_11                -5.680510e-02 1 1  ON 11
   uu_0                 3.143598e-01 1 1  ON 12
   uu_1                 2.371747e-01 1 1  ON 13
   uu_2                 1.723898e-01 1 1  ON 14
   uu_3                 1.282026e-01 1 1  ON 15
   uu_4                 9.742024e-02 1 1  ON 16
   uu_5                 7.613959e-02 1 1  ON 17
   uu_6                 5.860854e-02 1 1  ON 18
   uu_7                 4.133298e-02 1 1  ON 19
   uu_8                 2.415818e-02 1 1  ON 20
   uu_9                 9.296851e-03 1 1  ON 21
  uu_10                -3.337500e-03 1 1  ON 22
  uu_11                -1.381969e-02 1 1  ON 23
  uu_12                -2.249579e-02 1 1  ON 24
  uu_13                -1.737614e-02 1 1  ON 25
  uu_14                -1.267370e-02 1 1  ON 26
  uu_15                -8.106455e-03 1 1  ON 27
   ud_0                 9.397893e-01 1 1  ON 28
   ud_1                 7.388829e-01 1 1  ON 29
   ud_2                 5.672964e-01 1 1  ON 30
   ud_3                 4.343577e-01 1 1  ON 31
   ud_4                 3.350649e-01 1 1  ON 32
   ud_5                 2.809313e-01 1 1  ON 33
   ud_6                 2.403873e-01 1 1  ON 34
   ud_7                 1.978851e-01 1 1  ON 35
   ud_8                 1.570522e-01 1 1  ON 36
   ud_9                 1.206878e-01 1 1  ON 37
  ud_10                 9.052609e-02 1 1  ON 38
  ud_11                 6.349891e-02 1 1  ON 39
  ud_12                 4.164142e-02 1 1  ON 40
  ud_13                 3.214489e-02 1 1  ON 41
  ud_14                 2.263517e-02 1 1  ON 42
  ud_15                 1.502354e-02 1 1  ON 43
 uuBe_0                -2.875369e-03 1 1  ON 44
 uuBe_1                -1.740369e-03 1 1  ON 45
 uuBe_2                 9.393872e-03 1 1  ON 46
 uuBe_3                 1.592634e-03 1 1  ON 47
 uuBe_4                -2.440574e-03 1 1  ON 48
 uuBe_5                 5.901787e-04 1 1  ON 49
 uuBe_6                -1.115760e-03 1 1  ON 50
 uuBe_7                 6.526259e-03 1 1  ON 51
 uuBe_8                 1.220879e-02 1 1  ON 52
 uuBe_9                 1.923129e-03 1 1  ON 53
uuBe_10                 2.024394e-03 1 1  ON 54
uuBe_11                -1.107736e-02 1 1  ON 55
uuBe_12                -3.824950e-03 1 1  ON 56
uuBe_13                -4.692156e-04 1 1  ON 57
uuBe_14                 1.867440e-03 1 1  ON 58
uuBe_15                 4.889247e-04 1 1  ON 59
uuBe_16                -3.591967e-03 1 1  ON 60
uuBe_17                -1.639906e-03 1 1  ON 61
uuBe_18                -5.094946e-04 1 1  ON 62
uuBe_19                 2.087933e-03 1 1  ON 63
uuBe_20                 3.312755e-03 1 1  ON 64
uuBe_21                 4.831803e-03 1 1  ON 65
uuBe_22                -1.843293e-03 1 1  ON 66
uuBe_23                 5.564995e-05 1 1  ON 67
uuBe_24                -3.460934e-03 1 1  ON 68
uuBe_25                 1.421656e-03 1 1  ON 69
 udBe_0                -1.545033e-03 1 1  ON 70
 udBe_1                -2.704092e-03 1 1  ON 71
 udBe_2                 1.475939e-02 1 1  ON 72
 udBe_3                -1.797569e-03 1 1  ON 73
 udBe_4                -2.363266e-03 1 1  ON 74
 udBe_5                -3.540723e-04 1 1  ON 75
 udBe_6                -6.289452e-04 1 1  ON 76
 udBe_7                -5.452419e-03 1 1  ON 77
 udBe_8                 3.350066e-02 1 1  ON 78
 udBe_9                 2.044603e-03 1 1  ON 79
udBe_10                 3.641748e-03 1 1  ON 80
udBe_11                -1.957102e-02 1 1  ON 81
udBe_12                -1.909233e-02 1 1  ON 82
udBe_13                 1.441616e-03 1 1  ON 83
udBe_14                 1.323806e-02 1 1  ON 84
udBe_15                 1.919356e-03 1 1  ON 85
udBe_16                -2.521049e-03 1 1  ON 86
udBe_17                 1.190192e-02 1 1  ON 87
udBe_18                 1.437520e-02 1 1  ON 88
udBe_19                 1.081864e-02 1 1  ON 89
udBe_20                -9.813040e-03 1 1  ON 90
udBe_21                -1.637818e-03 1 1  ON 91
udBe_22                -1.858174e-03 1 1  ON 92
udBe_23                 1.131158e-02 1 1  ON 93
udBe_24                -4.159920e-03 1 1  ON 94
udBe_25                 9.320223e-04 1 1  ON 95
  </optVariables>
   Restore the number of walkers to 1, removing 0 walkers.
</opt>
</optimization-report>
  QMC Execution time = 1.457 secs
BRANCH resetRun
  Continue with the same input as the previous block.
 SimpleFixedNodeBranch::resetRun detected changes in <parameter>'s 
 BranchMode : 0000001100 0000001100
 iParam (old):                 10                 1                 2                 0                 0                 0                 1                 0
 iParam (new):                 10                 1                 2                 0                 0                 0                 1                 0
 vParam (old):                0.1               0.1                 1                 1                 1                 1                 1                 1                 1                 0                 0                 1                10                 1                 1                 1                 1
 vParam (new):                0.1               0.1                 1                 1                 1                 1                 1                 1                 1                 0                 0                 1                10                 1                 1                 1                 1

=========================================================
  Start QMCFixedSampleLinearOptimize
  File Root opt.s003 append = no 
=========================================================
  Skip QMCDriver::putQMCInfo 
  Resetting Properties of the walkers 1 x 13

=========================================================
  Start VMC
  File Root opt.s003 append = no 
=========================================================
Using existing walkers 
  Resetting Properties of the walkers 1 x 13

<vmc function="put">
  qmc_counter=3  my_counter=0
  time step      = 0.1
  blocks         = 20
  steps          = 80
  substeps       = 10
  current        = 0
  target samples = 25600
  walkers/mpi    = 1

  stepsbetweensamples = 1
<parameter name="blocks">20</parameter>
<parameter name="blocks_between_recompute">0</parameter>
<parameter name="check_properties">100</parameter>
<parameter name="checkproperties">100</parameter>
<parameter name="current">0</parameter>
<parameter name="dmcwalkersperthread">1600</parameter>
<parameter name="max_seconds">360000</parameter>
<parameter name="maxcpusecs">360000</parameter>
<parameter name="record_configs">0</parameter>
<parameter name="record_walkers">1</parameter>
<parameter name="recordconfigs">0</parameter>
<parameter name="recordwalkers">1</parameter>
<parameter name="samples">25600</parameter>
<parameter name="samplesperthread">1600</parameter>
<parameter name="spinmass">1</parameter>
<parameter name="steps">80</parameter>
<parameter name="stepsbetweensamples">1</parameter>
<parameter name="store_configs">0</parameter>
<parameter name="storeconfigs">0</parameter>
<parameter name="sub_steps">10</parameter>
<parameter name="substeps">10</parameter>
<parameter name="tau">0.1</parameter>
<parameter name="time_step">0.1</parameter>
<parameter name="timestep">0.1</parameter>
<parameter name="use_drift">no</parameter>
<parameter name="usedrift">no</parameter>
<parameter name="walkers">1</parameter>
<parameter name="warmup_steps">10</parameter>
<parameter name="warmupsteps">10</parameter>
  DumpConfig==false Nothing (configurations, state) will be saved.
  Walker Samples are dumped every 1 steps.
</vmc>
    Restarting, cummulative properties:
      energy     = -29.26867258
      variance   = 0
      r2accepted = 1e-10
      r2proposed = 1e-10
  Set drift_modifier UNR parameter a = 1
  Adding a default LocalEnergyEstimator for the MainEstimator 
 Using QMCCostFunction::QMCCostFunction
   Going to include the derivatives of NonLocalECP
 Using Default Cost Function: Cost = <|E-E_ff|^2>
  Set drift_modifier UNR parameter a = 1.0000000000e+00
<optimization-report>
<vmc stage="main" blocks="20">
  Cannot make clones again. Use existing 1 clones
  Initial partition of walkers 0 1 

  Using Particle by Particle moves
  Walker moves without drift
  Total Sample Size   =25600
  Walker distribution on root = 0 1 
========================================================================
--- Memory usage report : Memory Usage after the buffer registration ---
========================================================================
Available memory on node 0, free + buffers :   16130 MiB
Memory footprint by rank 0 on node 0       :     103 MiB
========================================================================
  Anonymous Buffer size per walker : 19232 Bytes.
MEMORY increase 0 MB VMC::resetRun
====================================================
  SimpleFixedNodeBranch::finalize after a VMC block
    QMC counter        = 3
    time step          = 0.1
    reference energy   = -29.2754
    reference variance = 0.228418
====================================================
  Execution time = 9.6905e-01
</vmc>
<opt stage="setup">
  <log>
   Reading configurations from h5FileRoot opt.s003
  QMCCostFunction is created with 1 threads.
  Using Nonlocal PP in Opt: NonLocalECP
   Number of samples loaded to each thread : 1600 
  VMC Eavg = -2.9275e+01
  VMC Evar = 2.2842e-01
  Total weights = 2.5600e+04
  Execution time = 1.9504e-01
  </log>
</opt>
<opt stage="main" walkers="25600">
  <log>

*****************************************
Building overlap and Hamiltonian matrices
*****************************************

Among totally 96 optimized parameters, largest LM parameter change : 4.5023e-02 at parameter 1

******************************************************************************
Init Cost =  -2.6325e+01    New Cost =  -2.6325e+01  Delta Cost =  -4.2019e-04
******************************************************************************

The new set of parameters is valid. Updating the trial wave function!

*****************************************************************************
Applying the update for shift_i =   1.0000e-02     and shift_s =   3.9062e-03
*****************************************************************************
  Execution time = 2.6678e-01
  </log>
  <optVariables href="opt.s003.opt.xml">
  eBe_0                -1.292842e+00 1 1  ON 0
  eBe_1                -1.178978e+00 1 1  ON 1
  eBe_2                -1.010368e+00 1 1  ON 2
  eBe_3                -8.874080e-01 1 1  ON 3
  eBe_4                -7.540843e-01 1 1  ON 4
  eBe_5                -5.210658e-01 1 1  ON 5
  eBe_6                -4.429332e-01 1 1  ON 6
  eBe_7                -3.450421e-01 1 1  ON 7
  eBe_8                -2.588026e-01 1 1  ON 8
  eBe_9                -1.820199e-01 1 1  ON 9
 eBe_10                -1.115384e-01 1 1  ON 10
 eBe_11                -5.557422e-02 1 1  ON 11
   uu_0                 3.220359e-01 1 1  ON 12
   uu_1                 2.413788e-01 1 1  ON 13
   uu_2                 1.775619e-01 1 1  ON 14
   uu_3                 1.323099e-01 1 1  ON 15
   uu_4                 1.000559e-01 1 1  ON 16
   uu_5                 7.814981e-02 1 1  ON 17
   uu_6                 6.113680e-02 1 1  ON 18
   uu_7                 4.260122e-02 1 1  ON 19
   uu_8                 2.675885e-02 1 1  ON 20
   uu_9                 1.225650e-02 1 1  ON 21
  uu_10                -9.782855e-04 1 1  ON 22
  uu_11                -1.144527e-02 1 1  ON 23
  uu_12                -1.726518e-02 1 1  ON 24
  uu_13                -1.330987e-02 1 1  ON 25
  uu_14                -8.778416e-03 1 1  ON 26
  uu_15                -4.782584e-03 1 1  ON 27
   ud_0                 9.567075e-01 1 1  ON 28
   ud_1                 7.472745e-01 1 1  ON 29
   ud_2                 5.703464e-01 1 1  ON 30
   ud_3                 4.348138e-01 1 1  ON 31
   ud_4                 3.333921e-01 1 1  ON 32
   ud_5                 2.800118e-01 1 1  ON 33
   ud_6                 2.404133e-01 1 1  ON 34
   ud_7                 1.983537e-01 1 1  ON 35
   ud_8                 1.580781e-01 1 1  ON 36
   ud_9                 1.230251e-01 1 1  ON 37
  ud_10                 9.315367e-02 1 1  ON 38
  ud_11                 6.599471e-02 1 1  ON 39
  ud_12                 4.429277e-02 1 1  ON 40
  ud_13                 3.442003e-02 1 1  ON 41
  ud_14                 2.364182e-02 1 1  ON 42
  ud_15                 1.488030e-02 1 1  ON 43
 uuBe_0                -2.751248e-03 1 1  ON 44
 uuBe_1                -1.510531e-03 1 1  ON 45
 uuBe_2                 9.943262e-03 1 1  ON 46
 uuBe_3                 1.743352e-03 1 1  ON 47
 uuBe_4                -2.055483e-03 1 1  ON 48
 uuBe_5                 5.336080e-04 1 1  ON 49
 uuBe_6                 3.525935e-04 1 1  ON 50
 uuBe_7                 2.542142e-03 1 1  ON 51
 uuBe_8                 1.457268e-02 1 1  ON 52
 uuBe_9                 1.117644e-03 1 1  ON 53
uuBe_10                 2.581943e-03 1 1  ON 54
uuBe_11                -1.191947e-02 1 1  ON 55
uuBe_12                -5.745238e-03 1 1  ON 56
uuBe_13                 2.269330e-04 1 1  ON 57
uuBe_14                 3.052657e-03 1 1  ON 58
uuBe_15                 6.992227e-04 1 1  ON 59
uuBe_16                -2.688494e-03 1 1  ON 60
uuBe_17                -1.304558e-03 1 1  ON 61
uuBe_18                 3.556285e-03 1 1  ON 62
uuBe_19                 3.793836e-03 1 1  ON 63
uuBe_20                 2.105847e-03 1 1  ON 64
uuBe_21                 2.849110e-03 1 1  ON 65
uuBe_22                -1.985234e-03 1 1  ON 66
uuBe_23                 9.078883e-04 1 1  ON 67
uuBe_24                -3.161483e-03 1 1  ON 68
uuBe_25                 1.512009e-03 1 1  ON 69
 udBe_0                -1.160539e-03 1 1  ON 70
 udBe_1                -2.755074e-03 1 1  ON 71
 udBe_2                 1.516250e-02 1 1  ON 72
 udBe_3                -1.711950e-03 1 1  ON 73
 udBe_4                -2.098466e-03 1 1  ON 74
 udBe_5                -3.222742e-04 1 1  ON 75
 udBe_6                -7.618687e-04 1 1  ON 76
 udBe_7                -5.314211e-03 1 1  ON 77
 udBe_8                 3.366461e-02 1 1  ON 78
 udBe_9                 1.927499e-03 1 1  ON 79
udBe_10                 4.371280e-03 1 1  ON 80
udBe_11                -2.155972e-02 1 1  ON 81
udBe_12                -1.828589e-02 1 1  ON 82
udBe_13                 1.317123e-03 1 1  ON 83
udBe_14                 1.310290e-02 1 1  ON 84
udBe_15                 1.731656e-03 1 1  ON 85
udBe_16                -6.865278e-04 1 1  ON 86
udBe_17                 9.980543e-03 1 1  ON 87
udBe_18                 1.844640e-02 1 1  ON 88
udBe_19                 8.853905e-03 1 1  ON 89
udBe_20                -1.189316e-02 1 1  ON 90
udBe_21                -1.922823e-03 1 1  ON 91
udBe_22                -1.376991e-03 1 1  ON 92
udBe_23                 1.308018e-02 1 1  ON 93
udBe_24                -4.441596e-03 1 1  ON 94
udBe_25                 8.485835e-04 1 1  ON 95
  </optVariables>
   Restore the number of walkers to 1, removing 0 walkers.
</opt>
</optimization-report>
  QMC Execution time = 1.448 secs
Loop execution max-interations = 8
BRANCH resetRun
  Continue with the same input as the previous block.
 SimpleFixedNodeBranch::resetRun detected changes in <parameter>'s 
 BranchMode : 0000001100 0000001100
 iParam (old):                 10                 1                 3                 0                 0                 0                 1                 0
 iParam (new):                 10                 1                 3                 0                 0                 0                 1                 0
 vParam (old):                0.1               0.1                 1                 1                 1                 1                 1                 1                 1                 0                 0                 1                10                 1                 1                 1                 1
 vParam (new):                0.1               0.1                 1                 1                 1                 1                 1                 1                 1                 0                 0                 1                10                 1                 1                 1                 1

=========================================================
  Start QMCFixedSampleLinearOptimize
  File Root opt.s004 append = no 
=========================================================
  Skip QMCDriver::putQMCInfo 
  Resetting Properties of the walkers 1 x 13

=========================================================
  Start VMC
  File Root opt.s004 append = no 
=========================================================
Resetting walkers
  Using the current 1 walkers.
  Total number of walkers: 16
  Total weight: 16
  Resetting Properties of the walkers 1 x 13

<vmc function="put">
  qmc_counter=0  my_counter=0
  time step      = 0.1
  blocks         = 20
  steps          = 80
  substeps       = 10
  current        = 0
  target samples = 25600
  walkers/mpi    = 1

  stepsbetweensamples = 1
<parameter name="blocks">20</parameter>
<parameter name="blocks_between_recompute">0</parameter>
<parameter name="check_properties">100</parameter>
<parameter name="checkproperties">100</parameter>
<parameter name="current">0</parameter>
<parameter name="dmcwalkersperthread">1600</parameter>
<parameter name="max_seconds">360000</parameter>
<parameter name="maxcpusecs">360000</parameter>
<parameter name="record_configs">0</parameter>
<parameter name="record_walkers">1</parameter>
<parameter name="recordconfigs">0</parameter>
<parameter name="recordwalkers">1</parameter>
<parameter name="samples">25600</parameter>
<parameter name="samplesperthread">1600</parameter>
<parameter name="spinmass">1</parameter>
<parameter name="steps">80</parameter>
<parameter name="stepsbetweensamples">1</parameter>
<parameter name="store_configs">0</parameter>
<parameter name="storeconfigs">0</parameter>
<parameter name="sub_steps">10</parameter>
<parameter name="substeps">10</parameter>
<parameter name="tau">0.1</parameter>
<parameter name="time_step">0.1</parameter>
<parameter name="timestep">0.1</parameter>
<parameter name="use_drift">no</parameter>
<parameter name="usedrift">no</parameter>
<parameter name="walkers">1</parameter>
<parameter name="warmup_steps">10</parameter>
<parameter name="warmupsteps">10</parameter>
  DumpConfig==false Nothing (configurations, state) will be saved.
  Walker Samples are dumped every 1 steps.
</vmc>
  Set drift_modifier UNR parameter a = 1
  Adding a default LocalEnergyEstimator for the MainEstimator 
 Using QMCCostFunction::QMCCostFunction
   Going to include the derivatives of NonLocalECP
 Using Default Cost Function: Cost = <|E-E_ff|^2>
  Set drift_modifier UNR parameter a = 1.0000000000e+00
<optimization-report>
<vmc stage="main" blocks="20">
  Cannot make clones again. Use existing 1 clones
  Initial partition of walkers 0 1 

  Using Particle by Particle moves
  Walker moves without drift
  Total Sample Size   =25600
  Walker distribution on root = 0 1 
========================================================================
--- Memory usage report : Memory Usage after the buffer registration ---
========================================================================
Available memory on node 0, free + buffers :   16130 MiB
Memory footprint by rank 0 on node 0       :     104 MiB
========================================================================
  Anonymous Buffer size per walker : 19232 Bytes.
MEMORY increase 0 MB VMC::resetRun
====================================================
  SimpleFixedNodeBranch::finalize after a VMC block
    QMC counter        = 0
    time step          = 0.1
    reference energy   = -29.2793
    reference variance = 0.232612
====================================================
  Execution time = 9.5007e-01
</vmc>
<opt stage="setup">
  <log>
   Reading configurations from h5FileRoot opt.s004
  QMCCostFunction is created with 1 threads.
  Using Nonlocal PP in Opt: NonLocalECP
   Number of samples loaded to each thread : 1600 
  VMC Eavg = -2.9279e+01
  VMC Evar = 2.3261e-01
  Total weights = 2.5600e+04
  Execution time = 1.9593e-01
  </log>
</opt>
<opt stage="main" walkers="25600">
  <log>

*****************************************
Building overlap and Hamiltonian matrices
*****************************************

Among totally 96 optimized parameters, largest LM parameter change : 4.9406e-02 at parameter 1

******************************************************************************
Init Cost =  -2.6328e+01    New Cost =  -2.6329e+01  Delta Cost =  -7.3308e-04
******************************************************************************

The new set of parameters is valid. Updating the trial wave function!

*****************************************************************************
Applying the update for shift_i =   1.0000e-02     and shift_s =   2.5000e-01
*****************************************************************************
  Execution time = 2.6268e-01
  </log>
  <optVariables href="opt.s004.opt.xml">
  eBe_0                -1.340856e+00 1 1  ON 0
  eBe_1                -1.228385e+00 1 1  ON 1
  eBe_2                -1.053151e+00 1 1  ON 2
  eBe_3                -9.166483e-01 1 1  ON 3
  eBe_4                -7.600686e-01 1 1  ON 4
  eBe_5                -5.219219e-01 1 1  ON 5
  eBe_6                -4.438193e-01 1 1  ON 6
  eBe_7                -3.470733e-01 1 1  ON 7
  eBe_8                -2.618062e-01 1 1  ON 8
  eBe_9                -1.809825e-01 1 1  ON 9
 eBe_10                -1.107600e-01 1 1  ON 10
 eBe_11                -5.431402e-02 1 1  ON 11
   uu_0                 3.246634e-01 1 1  ON 12
   uu_1                 2.495415e-01 1 1  ON 13
   uu_2                 1.808963e-01 1 1  ON 14
   uu_3                 1.359556e-01 1 1  ON 15
   uu_4                 1.036304e-01 1 1  ON 16
   uu_5                 8.142050e-02 1 1  ON 17
   uu_6                 6.358764e-02 1 1  ON 18
   uu_7                 4.648710e-02 1 1  ON 19
   uu_8                 2.995445e-02 1 1  ON 20
   uu_9                 1.446351e-02 1 1  ON 21
  uu_10                 2.852202e-03 1 1  ON 22
  uu_11                -8.664163e-03 1 1  ON 23
  uu_12                -1.569113e-02 1 1  ON 24
  uu_13                -1.210916e-02 1 1  ON 25
  uu_14                -7.828985e-03 1 1  ON 26
  uu_15                -4.861700e-03 1 1  ON 27
   ud_0                 9.588517e-01 1 1  ON 28
   ud_1                 7.446640e-01 1 1  ON 29
   ud_2                 5.656880e-01 1 1  ON 30
   ud_3                 4.346802e-01 1 1  ON 31
   ud_4                 3.352769e-01 1 1  ON 32
   ud_5                 2.815751e-01 1 1  ON 33
   ud_6                 2.404340e-01 1 1  ON 34
   ud_7                 1.981188e-01 1 1  ON 35
   ud_8                 1.583611e-01 1 1  ON 36
   ud_9                 1.220573e-01 1 1  ON 37
  ud_10                 9.172387e-02 1 1  ON 38
  ud_11                 6.357177e-02 1 1  ON 39
  ud_12                 4.194593e-02 1 1  ON 40
  ud_13                 3.207844e-02 1 1  ON 41
  ud_14                 2.204855e-02 1 1  ON 42
  ud_15                 1.442310e-02 1 1  ON 43
 uuBe_0                -2.779455e-03 1 1  ON 44
 uuBe_1                 9.425084e-05 1 1  ON 45
 uuBe_2                 1.075818e-02 1 1  ON 46
 uuBe_3                -3.441576e-04 1 1  ON 47
 uuBe_4                -3.854404e-03 1 1  ON 48
 uuBe_5                 4.951829e-04 1 1  ON 49
 uuBe_6                 3.615334e-03 1 1  ON 50
 uuBe_7                -1.772977e-03 1 1  ON 51
 uuBe_8                 1.600900e-02 1 1  ON 52
 uuBe_9                 3.650167e-04 1 1  ON 53
uuBe_10                -7.102572e-04 1 1  ON 54
uuBe_11                -8.325068e-03 1 1  ON 55
uuBe_12                -6.638430e-03 1 1  ON 56
uuBe_13                 1.756875e-03 1 1  ON 57
uuBe_14                 1.592739e-03 1 1  ON 58
uuBe_15                 1.051433e-03 1 1  ON 59
uuBe_16                -1.337985e-03 1 1  ON 60
uuBe_17                -2.387745e-03 1 1  ON 61
uuBe_18                 6.007800e-03 1 1  ON 62
uuBe_19                 1.623133e-03 1 1  ON 63
uuBe_20                 2.406311e-03 1 1  ON 64
uuBe_21                 2.576423e-03 1 1  ON 65
uuBe_22                -1.393232e-03 1 1  ON 66
uuBe_23                -6.631755e-04 1 1  ON 67
uuBe_24                -2.353971e-03 1 1  ON 68
uuBe_25                 1.200795e-03 1 1  ON 69
 udBe_0                -8.868663e-04 1 1  ON 70
 udBe_1                -2.699158e-03 1 1  ON 71
 udBe_2                 1.345055e-02 1 1  ON 72
 udBe_3                -1.770892e-03 1 1  ON 73
 udBe_4                -2.401904e-03 1 1  ON 74
 udBe_5                -1.845117e-04 1 1  ON 75
 udBe_6                -1.263532e-03 1 1  ON 76
 udBe_7                -4.588058e-03 1 1  ON 77
 udBe_8                 3.097543e-02 1 1  ON 78
 udBe_9                 2.383979e-03 1 1  ON 79
udBe_10                 3.360419e-03 1 1  ON 80
udBe_11                -1.890210e-02 1 1  ON 81
udBe_12                -1.765410e-02 1 1  ON 82
udBe_13                 9.110727e-04 1 1  ON 83
udBe_14                 1.227290e-02 1 1  ON 84
udBe_15                 1.788389e-03 1 1  ON 85
udBe_16                -6.619467e-04 1 1  ON 86
udBe_17                 9.713812e-03 1 1  ON 87
udBe_18                 1.449134e-02 1 1  ON 88
udBe_19                 9.353586e-03 1 1  ON 89
udBe_20                -1.020732e-02 1 1  ON 90
udBe_21                -9.749251e-04 1 1  ON 91
udBe_22                -1.650703e-03 1 1  ON 92
udBe_23                 1.130170e-02 1 1  ON 93
udBe_24                -3.927410e-03 1 1  ON 94
udBe_25                 7.566681e-04 1 1  ON 95
  </optVariables>
   Restore the number of walkers to 1, removing 0 walkers.
</opt>
</optimization-report>
  QMC Execution time = 1.433 secs
BRANCH resetRun
  Continue with the same input as the previous block.
 SimpleFixedNodeBranch::resetRun detected changes in <parameter>'s 
 BranchMode : 0000001100 0000001100
 iParam (old):                 10                 1                 4                 0                 0                 0                 1                 0
 iParam (new):                 10                 1                 4                 0                 0                 0                 1                 0
 vParam (old):                0.1               0.1                 1                 1                 1                 1                 1                 1                 1                 0                 0                 1                10                 1                 1                 1                 1
 vParam (new):                0.1               0.1                 1                 1                 1                 1                 1                 1                 1                 0                 0                 1                10                 1                 1                 1                 1

=========================================================
  Start QMCFixedSampleLinearOptimize
  File Root opt.s005 append = no 
=========================================================
  Skip QMCDriver::putQMCInfo 
  Resetting Properties of the walkers 1 x 13

=========================================================
  Start VMC
  File Root opt.s005 append = no 
=========================================================
Using existing walkers 
  Resetting Properties of the walkers 1 x 13

<vmc function="put">
  qmc_counter=1  my_counter=0
  time step      = 0.1
  blocks         = 20
  steps          = 80
  substeps       = 10
  current        = 0
  target samples = 25600
  walkers/mpi    = 1

  stepsbetweensamples = 1
<parameter name="blocks">20</parameter>
<parameter name="blocks_between_recompute">0</parameter>
<parameter name="check_properties">100</parameter>
<parameter name="checkproperties">100</parameter>
<parameter name="current">0</parameter>
<parameter name="dmcwalkersperthread">1600</parameter>
<parameter name="max_seconds">360000</parameter>
<parameter name="maxcpusecs">360000</parameter>
<parameter name="record_configs">0</parameter>
<parameter name="record_walkers">1</parameter>
<parameter name="recordconfigs">0</parameter>
<parameter name="recordwalkers">1</parameter>
<parameter name="samples">25600</parameter>
<parameter name="samplesperthread">1600</parameter>
<parameter name="spinmass">1</parameter>
<parameter name="steps">80</parameter>
<parameter name="stepsbetweensamples">1</parameter>
<parameter name="store_configs">0</parameter>
<parameter name="storeconfigs">0</parameter>
<parameter name="sub_steps">10</parameter>
<parameter name="substeps">10</parameter>
<parameter name="tau">0.1</parameter>
<parameter name="time_step">0.1</parameter>
<parameter name="timestep">0.1</parameter>
<parameter name="use_drift">no</parameter>
<parameter name="usedrift">no</parameter>
<parameter name="walkers">1</parameter>
<parameter name="warmup_steps">10</parameter>
<parameter name="warmupsteps">10</parameter>
  DumpConfig==false Nothing (configurations, state) will be saved.
  Walker Samples are dumped every 1 steps.
</vmc>
    Restarting, cummulative properties:
      energy     = -29.27926202
      variance   = 0
      r2accepted = 1e-10
      r2proposed = 1e-10
  Set drift_modifier UNR parameter a = 1
  Adding a default LocalEnergyEstimator for the MainEstimator 
 Using QMCCostFunction::QMCCostFunction
   Going to include the derivatives of NonLocalECP
 Using Default Cost Function: Cost = <|E-E_ff|^2>
  Set drift_modifier UNR parameter a = 1.0000000000e+00
<optimization-report>
<vmc stage="main" blocks="20">
  Cannot make clones again. Use existing 1 clones
  Initial partition of walkers 0 1 

  Using Particle by Particle moves
  Walker moves without drift
  Total Sample Size   =25600
  Walker distribution on root = 0 1 
========================================================================
--- Memory usage report : Memory Usage after the buffer registration ---
========================================================================
Available memory on node 0, free + buffers :   16129 MiB
Memory footprint by rank 0 on node 0       :     104 MiB
========================================================================
  Anonymous Buffer size per walker : 19232 Bytes.
MEMORY increase 0 MB VMC::resetRun
====================================================
  SimpleFixedNodeBranch::finalize after a VMC block
    QMC counter        = 1
    time step          = 0.1
    reference energy   = -29.2776
    reference variance = 0.218191
====================================================
  Execution time = 9.6704e-01
</vmc>
<opt stage="setup">
  <log>
   Reading configurations from h5FileRoot opt.s005
  QMCCostFunction is created with 1 threads.
  Using Nonlocal PP in Opt: NonLocalECP
   Number of samples loaded to each thread : 1600 
  VMC Eavg = -2.9278e+01
  VMC Evar = 2.1819e-01
  Total weights = 2.5600e+04
  Execution time = 1.9295e-01
  </log>
</opt>
<opt stage="main" walkers="25600">
  <log>

*****************************************
Building overlap and Hamiltonian matrices
*****************************************

Among totally 96 optimized parameters, largest LM parameter change : 2.0963e+02 at parameter 62
WARNING CostFunction-> Number of Effective Walkers is too small! 
  Number of effective walkers (samples) / total number of samples = 1.3026e-04
  User specified threshold minwalkers = 5.0000e-01
  If this message appears frequently. You might have to be cautious. 
  Find info about parameter "minwalkers" in the user manual!

******************************************************************************
Init Cost =  -2.6328e+01    New Cost =   1.2319e+04  Delta Cost =   1.2345e+04
******************************************************************************

The new set of parameters is not valid. Revert to the old set!

*****************************************************************************
Applying the update for shift_i =   1.0000e-02     and shift_s =   1.0000e+00
*****************************************************************************
  Execution time = 2.6473e-01
  </log>
  <optVariables href="opt.s005.opt.xml">
  eBe_0                -1.340856e+00 1 1  ON 0
  eBe_1                -1.228385e+00 1 1  ON 1
  eBe_2                -1.053151e+00 1 1  ON 2
  eBe_3                -9.166483e-01 1 1  ON 3
  eBe_4                -7.600686e-01 1 1  ON 4
  eBe_5                -5.219219e-01 1 1  ON 5
  eBe_6                -4.438193e-01 1 1  ON 6
  eBe_7                -3.470733e-01 1 1  ON 7
  eBe_8                -2.618062e-01 1 1  ON 8
  eBe_9                -1.809825e-01 1 1  ON 9
 eBe_10                -1.107600e-01 1 1  ON 10
 eBe_11                -5.431402e-02 1 1  ON 11
   uu_0                 3.246634e-01 1 1  ON 12
   uu_1                 2.495415e-01 1 1  ON 13
   uu_2                 1.808963e-01 1 1  ON 14
   uu_3                 1.359556e-01 1 1  ON 15
   uu_4                 1.036304e-01 1 1  ON 16
   uu_5                 8.142050e-02 1 1  ON 17
   uu_6                 6.358764e-02 1 1  ON 18
   uu_7                 4.648710e-02 1 1  ON 19
   uu_8                 2.995445e-02 1 1  ON 20
   uu_9                 1.446351e-02 1 1  ON 21
  uu_10                 2.852202e-03 1 1  ON 22
  uu_11                -8.664163e-03 1 1  ON 23
  uu_12                -1.569113e-02 1 1  ON 24
  uu_13                -1.210916e-02 1 1  ON 25
  uu_14                -7.828985e-03 1 1  ON 26
  uu_15                -4.861700e-03 1 1  ON 27
   ud_0                 9.588517e-01 1 1  ON 28
   ud_1                 7.446640e-01 1 1  ON 29
   ud_2                 5.656880e-01 1 1  ON 30
   ud_3                 4.346802e-01 1 1  ON 31
   ud_4                 3.352769e-01 1 1  ON 32
   ud_5                 2.815751e-01 1 1  ON 33
   ud_6                 2.404340e-01 1 1  ON 34
   ud_7                 1.981188e-01 1 1  ON 35
   ud_8                 1.583611e-01 1 1  ON 36
   ud_9                 1.220573e-01 1 1  ON 37
  ud_10                 9.172387e-02 1 1  ON 38
  ud_11                 6.357177e-02 1 1  ON 39
  ud_12                 4.194593e-02 1 1  ON 40
  ud_13                 3.207844e-02 1 1  ON 41
  ud_14                 2.204855e-02 1 1  ON 42
  ud_15                 1.442310e-02 1 1  ON 43
 uuBe_0                -2.779455e-03 1 1  ON 44
 uuBe_1                 9.425084e-05 1 1  ON 45
 uuBe_2                 1.075818e-02 1 1  ON 46
 uuBe_3                -3.441576e-04 1 1  ON 47
 uuBe_4                -3.854404e-03 1 1  ON 48
 uuBe_5                 4.951829e-04 1 1  ON 49
 uuBe_6                 3.615334e-03 1 1  ON 50
 uuBe_7                -1.772977e-03 1 1  ON 51
 uuBe_8                 1.600900e-02 1 1  ON 52
 uuBe_9                 3.650167e-04 1 1  ON 53
uuBe_10                -7.102572e-04 1 1  ON 54
uuBe_11                -8.325068e-03 1 1  ON 55
uuBe_12                -6.638430e-03 1 1  ON 56
uuBe_13                 1.756875e-03 1 1  ON 57
uuBe_14                 1.592739e-03 1 1  ON 58
uuBe_15                 1.051433e-03 1 1  ON 59
uuBe_16                -1.337985e-03 1 1  ON 60
uuBe_17                -2.387745e-03 1 1  ON 61
uuBe_18                 6.007800e-03 1 1  ON 62
uuBe_19                 1.623133e-03 1 1  ON 63
uuBe_20                 2.406311e-03 1 1  ON 64
uuBe_21                 2.576423e-03 1 1  ON 65
uuBe_22                -1.393232e-03 1 1  ON 66
uuBe_23                -6.631755e-04 1 1  ON 67
uuBe_24                -2.353971e-03 1 1  ON 68
uuBe_25                 1.200795e-03 1 1  ON 69
 udBe_0                -8.868663e-04 1 1  ON 70
 udBe_1                -2.699158e-03 1 1  ON 71
 udBe_2                 1.345055e-02 1 1  ON 72
 udBe_3                -1.770892e-03 1 1  ON 73
 udBe_4                -2.401904e-03 1 1  ON 74
 udBe_5                -1.845117e-04 1 1  ON 75
 udBe_6                -1.263532e-03 1 1  ON 76
 udBe_7                -4.588058e-03 1 1  ON 77
 udBe_8                 3.097543e-02 1 1  ON 78
 udBe_9                 2.383979e-03 1 1  ON 79
udBe_10                 3.360419e-03 1 1  ON 80
udBe_11                -1.890210e-02 1 1  ON 81
udBe_12                -1.765410e-02 1 1  ON 82
udBe_13                 9.110727e-04 1 1  ON 83
udBe_14                 1.227290e-02 1 1  ON 84
udBe_15                 1.788389e-03 1 1  ON 85
udBe_16                -6.619467e-04 1 1  ON 86
udBe_17                 9.713812e-03 1 1  ON 87
udBe_18                 1.449134e-02 1 1  ON 88
udBe_19                 9.353586e-03 1 1  ON 89
udBe_20                -1.020732e-02 1 1  ON 90
udBe_21                -9.749251e-04 1 1  ON 91
udBe_22                -1.650703e-03 1 1  ON 92
udBe_23                 1.130170e-02 1 1  ON 93
udBe_24                -3.927410e-03 1 1  ON 94
udBe_25                 7.566681e-04 1 1  ON 95
  </optVariables>
[...]
<parameter name="store_configs">0</parameter>
<parameter name="storeconfigs">0</parameter>
<parameter name="sub_steps">10</parameter>
<parameter name="substeps">10</parameter>
<parameter name="tau">0.1</parameter>
<parameter name="time_step">0.1</parameter>
<parameter name="timestep">0.1</parameter>
<parameter name="use_drift">no</parameter>
<parameter name="usedrift">no</parameter>
<parameter name="walkers">1</parameter>
<parameter name="warmup_steps">10</parameter>
<parameter name="warmupsteps">10</parameter>
  DumpConfig==false Nothing (configurations, state) will be saved.
  Walker Samples are dumped every 1 steps.
</vmc>
    Restarting, cummulative properties:
      energy     = -29.27836868
      variance   = 0
      r2accepted = 1e-10
      r2proposed = 1e-10
  Set drift_modifier UNR parameter a = 1
  Adding a default LocalEnergyEstimator for the MainEstimator 
 Using QMCCostFunction::QMCCostFunction
   Going to include the derivatives of NonLocalECP
 Using Default Cost Function: Cost = <|E-E_ff|^2>
  Set drift_modifier UNR parameter a = 1.0000000000e+00
<optimization-report>
<vmc stage="main" blocks="20">
  Cannot make clones again. Use existing 1 clones
  Initial partition of walkers 0 1 

  Using Particle by Particle moves
  Walker moves without drift
  Total Sample Size   =25600
  Walker distribution on root = 0 1 
========================================================================
--- Memory usage report : Memory Usage after the buffer registration ---
========================================================================
Available memory on node 0, free + buffers :   16116 MiB
Memory footprint by rank 0 on node 0       :     109 MiB
========================================================================
  Anonymous Buffer size per walker : 19232 Bytes.
MEMORY increase 0 MB VMC::resetRun
====================================================
  SimpleFixedNodeBranch::finalize after a VMC block
    QMC counter        = 6
    time step          = 0.1
    reference energy   = -29.2794
    reference variance = 0.237286
====================================================
  Execution time = 9.6014e-01
</vmc>
<opt stage="setup">
  <log>
   Reading configurations from h5FileRoot opt.s010
  QMCCostFunction is created with 1 threads.
  Using Nonlocal PP in Opt: NonLocalECP
   Number of samples loaded to each thread : 1600 
  VMC Eavg = -2.9279e+01
  VMC Evar = 2.3729e-01
  Total weights = 2.5600e+04
  Execution time = 1.9684e-01
  </log>
</opt>
<opt stage="main" walkers="25600">
  <log>

*****************************************
Building overlap and Hamiltonian matrices
*****************************************

Among totally 96 optimized parameters, largest LM parameter change : 2.0278e+02 at parameter 62
WARNING CostFunction-> Number of Effective Walkers is too small! 
  Number of effective walkers (samples) / total number of samples = 5.9679e-04
  User specified threshold minwalkers = 5.0000e-01
  If this message appears frequently. You might have to be cautious. 
  Find info about parameter "minwalkers" in the user manual!

******************************************************************************
Init Cost =  -2.6328e+01    New Cost =   9.4284e+03  Delta Cost =   9.4547e+03
******************************************************************************

The new set of parameters is not valid. Revert to the old set!

*****************************************************************************
Applying the update for shift_i =   1.0000e-02     and shift_s =   2.5000e-01
*****************************************************************************
  Execution time = 2.6525e-01
  </log>
  <optVariables href="opt.s010.opt.xml">
  eBe_0                -1.390545e+00 1 1  ON 0
  eBe_1                -1.277767e+00 1 1  ON 1
  eBe_2                -1.095188e+00 1 1  ON 2
  eBe_3                -9.418455e-01 1 1  ON 3
  eBe_4                -7.836962e-01 1 1  ON 4
  eBe_5                -5.425153e-01 1 1  ON 5
  eBe_6                -4.620764e-01 1 1  ON 6
  eBe_7                -3.597211e-01 1 1  ON 7
  eBe_8                -2.755808e-01 1 1  ON 8
  eBe_9                -1.969388e-01 1 1  ON 9
 eBe_10                -1.222634e-01 1 1  ON 10
 eBe_11                -6.290893e-02 1 1  ON 11
   uu_0                 3.360868e-01 1 1  ON 12
   uu_1                 2.577103e-01 1 1  ON 13
   uu_2                 1.853154e-01 1 1  ON 14
   uu_3                 1.356362e-01 1 1  ON 15
   uu_4                 1.003882e-01 1 1  ON 16
   uu_5                 7.958623e-02 1 1  ON 17
   uu_6                 6.056052e-02 1 1  ON 18
   uu_7                 4.091883e-02 1 1  ON 19
   uu_8                 2.361351e-02 1 1  ON 20
   uu_9                 6.963411e-03 1 1  ON 21
  uu_10                -5.512953e-03 1 1  ON 22
  uu_11                -1.628992e-02 1 1  ON 23
  uu_12                -2.291052e-02 1 1  ON 24
  uu_13                -1.783614e-02 1 1  ON 25
  uu_14                -1.108917e-02 1 1  ON 26
  uu_15                -6.724296e-03 1 1  ON 27
   ud_0                 9.674269e-01 1 1  ON 28
   ud_1                 7.580651e-01 1 1  ON 29
   ud_2                 5.794613e-01 1 1  ON 30
   ud_3                 4.472961e-01 1 1  ON 31
   ud_4                 3.485921e-01 1 1  ON 32
   ud_5                 2.931390e-01 1 1  ON 33
   ud_6                 2.516991e-01 1 1  ON 34
   ud_7                 2.076682e-01 1 1  ON 35
   ud_8                 1.666520e-01 1 1  ON 36
   ud_9                 1.298442e-01 1 1  ON 37
  ud_10                 9.755856e-02 1 1  ON 38
  ud_11                 6.740792e-02 1 1  ON 39
  ud_12                 4.264237e-02 1 1  ON 40
  ud_13                 3.233108e-02 1 1  ON 41
  ud_14                 2.327621e-02 1 1  ON 42
  ud_15                 1.370900e-02 1 1  ON 43
 uuBe_0                -2.785662e-03 1 1  ON 44
 uuBe_1                -1.689502e-03 1 1  ON 45
 uuBe_2                 1.140939e-02 1 1  ON 46
 uuBe_3                 2.469771e-03 1 1  ON 47
 uuBe_4                -1.764916e-03 1 1  ON 48
 uuBe_5                 6.468909e-04 1 1  ON 49
 uuBe_6                 1.324870e-03 1 1  ON 50
 uuBe_7                 4.534574e-03 1 1  ON 51
 uuBe_8                 1.466849e-02 1 1  ON 52
 uuBe_9                -2.826785e-04 1 1  ON 53
uuBe_10                 3.495158e-03 1 1  ON 54
uuBe_11                -1.500874e-02 1 1  ON 55
uuBe_12                -3.474686e-03 1 1  ON 56
uuBe_13                 1.328441e-04 1 1  ON 57
uuBe_14                 1.415752e-03 1 1  ON 58
uuBe_15                 5.785426e-04 1 1  ON 59
uuBe_16                 2.219654e-03 1 1  ON 60
uuBe_17                -4.983289e-03 1 1  ON 61
uuBe_18                 4.916575e-03 1 1  ON 62
uuBe_19                 5.753793e-04 1 1  ON 63
uuBe_20                 8.182563e-04 1 1  ON 64
uuBe_21                 5.611007e-03 1 1  ON 65
uuBe_22                -2.070273e-03 1 1  ON 66
uuBe_23                 6.357939e-04 1 1  ON 67
uuBe_24                -4.525580e-03 1 1  ON 68
uuBe_25                 1.821650e-03 1 1  ON 69
 udBe_0                -1.166230e-03 1 1  ON 70
 udBe_1                -2.495301e-03 1 1  ON 71
 udBe_2                 1.507275e-02 1 1  ON 72
 udBe_3                -1.828213e-03 1 1  ON 73
 udBe_4                -2.713669e-03 1 1  ON 74
 udBe_5                -5.069713e-05 1 1  ON 75
 udBe_6                -5.873608e-04 1 1  ON 76
 udBe_7                -4.517910e-03 1 1  ON 77
 udBe_8                 3.318294e-02 1 1  ON 78
 udBe_9                 2.027218e-03 1 1  ON 79
udBe_10                 3.670788e-03 1 1  ON 80
udBe_11                -2.064723e-02 1 1  ON 81
udBe_12                -1.820203e-02 1 1  ON 82
udBe_13                 9.644523e-04 1 1  ON 83
udBe_14                 1.224482e-02 1 1  ON 84
udBe_15                 1.929558e-03 1 1  ON 85
udBe_16                -1.795730e-04 1 1  ON 86
udBe_17                 9.283975e-03 1 1  ON 87
udBe_18                 1.578584e-02 1 1  ON 88
udBe_19                 9.298538e-03 1 1  ON 89
udBe_20                -9.878092e-03 1 1  ON 90
udBe_21                -9.991908e-04 1 1  ON 91
udBe_22                -1.685487e-03 1 1  ON 92
udBe_23                 1.069318e-02 1 1  ON 93
udBe_24                -4.003247e-03 1 1  ON 94
udBe_25                 7.997468e-04 1 1  ON 95
  </optVariables>
   Restore the number of walkers to 1, removing 0 walkers.
</opt>
</optimization-report>
  QMC Execution time = 1.447 secs
BRANCH resetRun
  Continue with the same input as the previous block.
 SimpleFixedNodeBranch::resetRun detected changes in <parameter>'s 
 BranchMode : 0000001100 0000001100
 iParam (old):                 10                 1                10                 0                 0                 0                 1                 0
 iParam (new):                 10                 1                10                 0                 0                 0                 1                 0
 vParam (old):                0.1               0.1                 1                 1                 1                 1                 1                 1                 1                 0                 0                 1                10                 1                 1                 1                 1
 vParam (new):                0.1               0.1                 1                 1                 1                 1                 1                 1                 1                 0                 0                 1                10                 1                 1                 1                 1

=========================================================
  Start QMCFixedSampleLinearOptimize
  File Root opt.s011 append = no 
=========================================================
  Skip QMCDriver::putQMCInfo 
  Resetting Properties of the walkers 1 x 13

=========================================================
  Start VMC
  File Root opt.s011 append = no 
=========================================================
Using existing walkers 
  Resetting Properties of the walkers 1 x 13

<vmc function="put">
  qmc_counter=7  my_counter=0
  time step      = 0.1
  blocks         = 20
  steps          = 80
  substeps       = 10
  current        = 0
  target samples = 25600
  walkers/mpi    = 1

  stepsbetweensamples = 1
<parameter name="blocks">20</parameter>
<parameter name="blocks_between_recompute">0</parameter>
<parameter name="check_properties">100</parameter>
<parameter name="checkproperties">100</parameter>
<parameter name="current">0</parameter>
<parameter name="dmcwalkersperthread">1600</parameter>
<parameter name="max_seconds">360000</parameter>
<parameter name="maxcpusecs">360000</parameter>
<parameter name="record_configs">0</parameter>
<parameter name="record_walkers">1</parameter>
<parameter name="recordconfigs">0</parameter>
<parameter name="recordwalkers">1</parameter>
<parameter name="samples">25600</parameter>
<parameter name="samplesperthread">1600</parameter>
<parameter name="spinmass">1</parameter>
<parameter name="steps">80</parameter>
<parameter name="stepsbetweensamples">1</parameter>
<parameter name="store_configs">0</parameter>
<parameter name="storeconfigs">0</parameter>
<parameter name="sub_steps">10</parameter>
<parameter name="substeps">10</parameter>
<parameter name="tau">0.1</parameter>
<parameter name="time_step">0.1</parameter>
<parameter name="timestep">0.1</parameter>
<parameter name="use_drift">no</parameter>
<parameter name="usedrift">no</parameter>
<parameter name="walkers">1</parameter>
<parameter name="warmup_steps">10</parameter>
<parameter name="warmupsteps">10</parameter>
  DumpConfig==false Nothing (configurations, state) will be saved.
  Walker Samples are dumped every 1 steps.
</vmc>
    Restarting, cummulative properties:
      energy     = -29.27851294
      variance   = 0
      r2accepted = 1e-10
      r2proposed = 1e-10
  Set drift_modifier UNR parameter a = 1
  Adding a default LocalEnergyEstimator for the MainEstimator 
 Using QMCCostFunction::QMCCostFunction
   Going to include the derivatives of NonLocalECP
 Using Default Cost Function: Cost = <|E-E_ff|^2>
  Set drift_modifier UNR parameter a = 1.0000000000e+00
<optimization-report>
<vmc stage="main" blocks="20">
  Cannot make clones again. Use existing 1 clones
  Initial partition of walkers 0 1 

  Using Particle by Particle moves
  Walker moves without drift
  Total Sample Size   =25600
  Walker distribution on root = 0 1 
========================================================================
--- Memory usage report : Memory Usage after the buffer registration ---
========================================================================
Available memory on node 0, free + buffers :   16116 MiB
Memory footprint by rank 0 on node 0       :     111 MiB
========================================================================
  Anonymous Buffer size per walker : 19232 Bytes.
MEMORY increase 0 MB VMC::resetRun
====================================================
  SimpleFixedNodeBranch::finalize after a VMC block
    QMC counter        = 7
    time step          = 0.1
    reference energy   = -29.2737
    reference variance = 0.230838
====================================================
  Execution time = 9.6900e-01
</vmc>
<opt stage="setup">
  <log>
   Reading configurations from h5FileRoot opt.s011
  QMCCostFunction is created with 1 threads.
  Using Nonlocal PP in Opt: NonLocalECP
   Number of samples loaded to each thread : 1600 
  VMC Eavg = -2.9274e+01
  VMC Evar = 2.3084e-01
  Total weights = 2.5600e+04
  Execution time = 1.9883e-01
  </log>
</opt>
<opt stage="main" walkers="25600">
  <log>

*****************************************
Building overlap and Hamiltonian matrices
*****************************************

Among totally 96 optimized parameters, largest LM parameter change : 1.2576e-02 at parameter 1

******************************************************************************
Init Cost =  -2.6323e+01    New Cost =  -2.6324e+01  Delta Cost =  -2.8600e-04
******************************************************************************

The new set of parameters is valid. Updating the trial wave function!

*****************************************************************************
Applying the update for shift_i =   1.0000e-02     and shift_s =   6.2500e-02
*****************************************************************************
  Execution time = 2.7808e-01
  </log>
  <optVariables href="opt.s011.opt.xml">
  eBe_0                -1.398614e+00 1 1  ON 0
  eBe_1                -1.290343e+00 1 1  ON 1
  eBe_2                -1.101083e+00 1 1  ON 2
  eBe_3                -9.458457e-01 1 1  ON 3
  eBe_4                -7.873634e-01 1 1  ON 4
  eBe_5                -5.435268e-01 1 1  ON 5
  eBe_6                -4.650692e-01 1 1  ON 6
  eBe_7                -3.644667e-01 1 1  ON 7
  eBe_8                -2.796733e-01 1 1  ON 8
  eBe_9                -1.991566e-01 1 1  ON 9
 eBe_10                -1.229131e-01 1 1  ON 10
 eBe_11                -6.076534e-02 1 1  ON 11
   uu_0                 3.427210e-01 1 1  ON 12
   uu_1                 2.593908e-01 1 1  ON 13
   uu_2                 1.858375e-01 1 1  ON 14
   uu_3                 1.356116e-01 1 1  ON 15
   uu_4                 1.040875e-01 1 1  ON 16
   uu_5                 8.255098e-02 1 1  ON 17
   uu_6                 6.404666e-02 1 1  ON 18
   uu_7                 4.599654e-02 1 1  ON 19
   uu_8                 2.886299e-02 1 1  ON 20
   uu_9                 1.240092e-02 1 1  ON 21
  uu_10                -2.329799e-03 1 1  ON 22
  uu_11                -1.600355e-02 1 1  ON 23
  uu_12                -2.412304e-02 1 1  ON 24
  uu_13                -1.846117e-02 1 1  ON 25
  uu_14                -1.275116e-02 1 1  ON 26
  uu_15                -7.665010e-03 1 1  ON 27
   ud_0                 9.760658e-01 1 1  ON 28
   ud_1                 7.656274e-01 1 1  ON 29
   ud_2                 5.842994e-01 1 1  ON 30
   ud_3                 4.489239e-01 1 1  ON 31
   ud_4                 3.459011e-01 1 1  ON 32
   ud_5                 2.906458e-01 1 1  ON 33
   ud_6                 2.501924e-01 1 1  ON 34
   ud_7                 2.074972e-01 1 1  ON 35
   ud_8                 1.677003e-01 1 1  ON 36
   ud_9                 1.300888e-01 1 1  ON 37
  ud_10                 9.846238e-02 1 1  ON 38
  ud_11                 6.944692e-02 1 1  ON 39
  ud_12                 4.492775e-02 1 1  ON 40
  ud_13                 3.370432e-02 1 1  ON 41
  ud_14                 2.205736e-02 1 1  ON 42
  ud_15                 1.423478e-02 1 1  ON 43
 uuBe_0                -4.584843e-03 1 1  ON 44
 uuBe_1                -1.691283e-03 1 1  ON 45
 uuBe_2                 1.544645e-02 1 1  ON 46
 uuBe_3                 2.972367e-03 1 1  ON 47
 uuBe_4                -3.166515e-03 1 1  ON 48
 uuBe_5                 5.979794e-04 1 1  ON 49
 uuBe_6                 5.364723e-03 1 1  ON 50
 uuBe_7                 9.031221e-04 1 1  ON 51
 uuBe_8                 1.729689e-02 1 1  ON 52
 uuBe_9                -1.104083e-03 1 1  ON 53
uuBe_10                 3.281476e-03 1 1  ON 54
uuBe_11                -1.390405e-02 1 1  ON 55
uuBe_12                -5.128344e-03 1 1  ON 56
uuBe_13                -6.828043e-04 1 1  ON 57
uuBe_14                 5.240430e-04 1 1  ON 58
uuBe_15                 9.806287e-04 1 1  ON 59
uuBe_16                 3.239252e-03 1 1  ON 60
uuBe_17                -8.049449e-03 1 1  ON 61
uuBe_18                 4.949854e-03 1 1  ON 62
uuBe_19                 2.297156e-03 1 1  ON 63
uuBe_20                 1.953260e-03 1 1  ON 64
uuBe_21                 5.467389e-03 1 1  ON 65
uuBe_22                -2.523009e-03 1 1  ON 66
uuBe_23                -6.758581e-04 1 1  ON 67
uuBe_24                -3.851844e-03 1 1  ON 68
uuBe_25                 1.855456e-03 1 1  ON 69
 udBe_0                -1.090884e-03 1 1  ON 70
 udBe_1                -2.500726e-03 1 1  ON 71
 udBe_2                 1.557728e-02 1 1  ON 72
 udBe_3                -1.720037e-03 1 1  ON 73
 udBe_4                -1.886569e-03 1 1  ON 74
 udBe_5                -1.141807e-05 1 1  ON 75
 udBe_6                -1.289171e-03 1 1  ON 76
 udBe_7                -4.667717e-03 1 1  ON 77
 udBe_8                 3.635013e-02 1 1  ON 78
 udBe_9                 2.589472e-03 1 1  ON 79
udBe_10                 4.881109e-03 1 1  ON 80
udBe_11                -2.397966e-02 1 1  ON 81
udBe_12                -1.973118e-02 1 1  ON 82
udBe_13                 1.323216e-03 1 1  ON 83
udBe_14                 1.452800e-02 1 1  ON 84
udBe_15                 1.864374e-03 1 1  ON 85
udBe_16                -1.645466e-03 1 1  ON 86
udBe_17                 1.191088e-02 1 1  ON 87
udBe_18                 1.917521e-02 1 1  ON 88
udBe_19                 1.037744e-02 1 1  ON 89
udBe_20                -1.138967e-02 1 1  ON 90
udBe_21                -2.317691e-03 1 1  ON 91
udBe_22                -1.744011e-03 1 1  ON 92
udBe_23                 1.282828e-02 1 1  ON 93
udBe_24                -4.641652e-03 1 1  ON 94
udBe_25                 1.045812e-03 1 1  ON 95
  </optVariables>
   Restore the number of walkers to 1, removing 0 walkers.
</opt>
</optimization-report>
  QMC Execution time = 1.471 secs
  Total Execution time = 17.28 secs

=========================================================
  A new xml input file : opt.s011.cont.xml

Use --enable-timers=<value> command line option to increase or decrease level of timing information
Stack timer profile
Timer                           Inclusive_time  Exclusive_time  Calls       Time_per_call
Total                             17.4192     0.0001              1      17.419191122
  QMCFixedSampleLinearOptimize    17.2775     0.0012              2       8.638764024
    VMC                           17.2763    17.2763             12       1.439693153
  Startup                          0.1416     0.1416              1       0.141577005

QMCPACK execution completed successfully
