  Input file(s): dmc.in.xml 

=====================================================
                    QMCPACK 3.11.9

       (c) Copyright 2003-  QMCPACK developers

                    Please cite:
 J. Kim et al. J. Phys. Cond. Mat. 30 195901 (2018)
      https://doi.org/10.1088/1361-648X/aab9c3

  Git branch: develop
  Last git commit: 1e04b4793bbdadcd1bcdf36287c3837f2cf87452-dirty
  Last git commit date: Thu Oct 7 17:34:02 2021 -0500
  Last git commit subject: Merge pull request #3518 from williamfgc/ci-afqmc-docs
=====================================================
  Global options 

  Total number of MPI ranks = 16
  Number of MPI groups      = 1
  MPI group ID              = 0
  Number of ranks in group  = 16
  MPI ranks per node        = 16
  OMP 1st level threads     = 1
  OMP nested threading disabled or only 1 thread on the 2nd level

  Precision used in this calculation, see definitions in the manual:
  Base precision      = double
  Full precision      = double

  CPU only build
  Timer build option is enabled. Current timer level is coarse

  Input XML = dmc.in.xml

  Project = dmc
  date    = 2021-10-22 22:51:16 CDT
  host    = abenali


 Random Number
 -------------
  Offset for the random number seeds from input file (mod 1024): 42

  Range of prime numbers to use as seeds over processors and threads = 193-281


 Lattice
 -------
  Lattice is not specified for the Open BC. Add a huge box.
  Simulation cell radius   = 5000000000.000000 bohr
  Wigner-Seitz cell radius = 5000000000.000000 bohr


 Particle Set
 ------------
  Name: ion0   Offload : 

  Initializing the lattice by the global supercell
  All the species have the same mass 1.000000
  Particle set size: 2


 Particle Set
 ------------
  Name: e   Offload : 

  Initializing the lattice by the global supercell
  All the species have the same mass 1.000000
  Particle set size: 8


 Many-body wavefunction
 -------------------
  Name: psi0   Tasking: no

WARNING !!!!!!! Deprecated input style: creating SPO set inside determinantset. Support for this usage will soon be removed. SPO sets should be built outside.
WARNING !!!!!!! Deprecated input style: missing basisset element. LCAO needs an explicit basisset XML element. Fallback on loading an implicit one.
  LCAO: SoaAtomicBasisSet<MultiQuintic,1>
Reading BasisSet from HDF5 file:../SCF/scf.h5
<input node="atomicBasisSet" name="gaussia" expandYlm="pyscf" angular="spherical" elementType="Be" normalized="no" type="Numerical" expM="1" />
  AO BasisSet for Be
   Spherical Harmonics contain (-1)^m factor
   Angular momentum m expanded as -l, ... ,l, with the exception of L=1 (1,-1,0)
   Grid is created by the input parameters in h5
    Using log grid ri = 0.000001 rf = 100.000000 npts = 1001
   R(n,l,m,s) 0 0 0 0
   R(n,l,m,s) 1 0 0 0
   R(n,l,m,s) 2 0 0 0
   R(n,l,m,s) 3 0 0 0
   R(n,l,m,s) 4 0 0 0
   R(n,l,m,s) 5 1 0 0
   R(n,l,m,s) 6 1 0 0
   R(n,l,m,s) 7 1 0 0
   R(n,l,m,s) 8 1 0 0
   R(n,l,m,s) 9 2 0 0
   R(n,l,m,s) 10 2 0 0
   R(n,l,m,s) 11 2 0 0
   R(n,l,m,s) 12 3 0 0
   R(n,l,m,s) 13 3 0 0
   R(n,l,m,s) 14 4 0 0
Expanding Ylm as L=1 as (1,-1,0) and L>1 as -l,-l+1,...,l-1,l
   Adding 1 spherical orbitals
   Adding 1 spherical orbitals
   Adding 1 spherical orbitals
   Adding 1 spherical orbitals
   Adding 1 spherical orbitals
   Adding 3 spherical orbitals
   Adding 3 spherical orbitals
   Adding 3 spherical orbitals
   Adding 3 spherical orbitals
   Adding 5 spherical orbitals
   Adding 5 spherical orbitals
   Adding 5 spherical orbitals
   Adding 7 spherical orbitals
   Adding 7 spherical orbitals
   Adding 9 spherical orbitals
  Setting cutoff radius 1675979706721.165283

   Maximum Angular Momentum  = 4
   Number of Radial functors = 15
   Basis size                = 55

  Created SPOSet builder named 'LCAOBSet' of type molecularorbital

   Single Slater determinant
   -------------------------

     Determinant
     -----------
      Name: updet   Spin group: 0   SPO name: updet

WARNING !!!!!!! Deprecated input style: creating SPO set inside determinantset. Support for this usage will soon be removed. SPO sets should be built outside.
      Create a new SPO set updet

     Single particle orbitals (SPO)
     ------------------------------
      Name:    Type: LCAO   Builder class name: LCAOrbitalBuilder

WARNING SPOSet object name not given in the input!
        Using cusp correction.
Reading cusp info from : ../SCF/updet.cuspInfo.xml
Found precomputed cusp data for spo set: updet
WARNING SPOSet object doesn't have a name.
      Setting delay_rank to default value 1
      Using rank-1 Sherman-Morrison Fahy update (SM1)
      Running on CPU.


     Determinant
     -----------
      Name: downdet   Spin group: 1   SPO name: downdet

WARNING !!!!!!! Deprecated input style: creating SPO set inside determinantset. Support for this usage will soon be removed. SPO sets should be built outside.
      Create a new SPO set downdet

     Single particle orbitals (SPO)
     ------------------------------
      Name:    Type: LCAO   Builder class name: LCAOrbitalBuilder

WARNING SPOSet object name not given in the input!
        Using cusp correction.
Reading cusp info from : ../SCF/downdet.cuspInfo.xml
Found precomputed cusp data for spo set: downdet
WARNING SPOSet object doesn't have a name.
      Setting delay_rank to default value 1
      Using rank-1 Sherman-Morrison Fahy update (SM1)
      Running on CPU.

  Added a fermionic WaveFunctionComponent SlaterDet

   Jastrow
   -------
    Name: J1   Type: One-Body   Function: bspline

    Radial function for element: Be - e
     Number of parameters: 12
     Cusp: 0.000000
     Cutoff radius: 6.000000

       Name                        Value Type Recompute Use Index
     ------ ---------------------------- ---- --------- --- -----
      eBe_0                -1.292842e+00    1         1  ON     0
      eBe_1                -1.178978e+00    1         1  ON     1
      eBe_2                -1.010368e+00    1         1  ON     2
      eBe_3                -8.874080e-01    1         1  ON     3
      eBe_4                -7.540843e-01    1         1  ON     4
      eBe_5                -5.210658e-01    1         1  ON     5
      eBe_6                -4.429332e-01    1         1  ON     6
      eBe_7                -3.450421e-01    1         1  ON     7
      eBe_8                -2.588026e-01    1         1  ON     8
      eBe_9                -1.820199e-01    1         1  ON     9
     eBe_10                -1.115384e-01    1         1  ON    10
     eBe_11                -5.557422e-02    1         1  ON    11


   Jastrow
   -------
    Name: J2   Type: Two-Body   Function: bspline

    Radial function for species: u - u
     Number of parameters: 16
     Cusp: -0.25
     Cutoff radius: 8

      Name                        Value Type Recompute Use Index
     ----- ---------------------------- ---- --------- --- -----
      uu_0                 3.220359e-01    1         1  ON     0
      uu_1                 2.413788e-01    1         1  ON     1
      uu_2                 1.775619e-01    1         1  ON     2
      uu_3                 1.323099e-01    1         1  ON     3
      uu_4                 1.000559e-01    1         1  ON     4
      uu_5                 7.814981e-02    1         1  ON     5
      uu_6                 6.113680e-02    1         1  ON     6
      uu_7                 4.260122e-02    1         1  ON     7
      uu_8                 2.675885e-02    1         1  ON     8
      uu_9                 1.225650e-02    1         1  ON     9
     uu_10                -9.782855e-04    1         1  ON    10
     uu_11                -1.144527e-02    1         1  ON    11
     uu_12                -1.726518e-02    1         1  ON    12
     uu_13                -1.330987e-02    1         1  ON    13
     uu_14                -8.778416e-03    1         1  ON    14
     uu_15                -4.782584e-03    1         1  ON    15

    Radial function for species: u - d
     Number of parameters: 16
     Cusp: -0.5
     Cutoff radius: 8

      Name                        Value Type Recompute Use Index
     ----- ---------------------------- ---- --------- --- -----
      ud_0                 9.567075e-01    1         1  ON     0
      ud_1                 7.472745e-01    1         1  ON     1
      ud_2                 5.703464e-01    1         1  ON     2
      ud_3                 4.348138e-01    1         1  ON     3
      ud_4                 3.333921e-01    1         1  ON     4
      ud_5                 2.800118e-01    1         1  ON     5
      ud_6                 2.404133e-01    1         1  ON     6
      ud_7                 1.983537e-01    1         1  ON     7
      ud_8                 1.580781e-01    1         1  ON     8
      ud_9                 1.230251e-01    1         1  ON     9
     ud_10                 9.315367e-02    1         1  ON    10
     ud_11                 6.599471e-02    1         1  ON    11
     ud_12                 4.429277e-02    1         1  ON    12
     ud_13                 3.442003e-02    1         1  ON    13
     ud_14                 2.364182e-02    1         1  ON    14
     ud_15                 1.488030e-02    1         1  ON    15


   Jastrow
   -------
    Name: J3   Type: eeI   Function: polynomial

     Ion: Be   electron-electron: u - u
      Number of parameters for e-e: 3, for e-I: 3
      Cutoff radius: 5

         Name                        Value Type Recompute Use Index
      ------- ---------------------------- ---- --------- --- -----
       uuBe_0                -2.751248e-03    1         1  ON     0
       uuBe_1                -1.510531e-03    1         1  ON     1
       uuBe_2                 9.943262e-03    1         1  ON     2
       uuBe_3                 1.743352e-03    1         1  ON     3
       uuBe_4                -2.055483e-03    1         1  ON     4
       uuBe_5                 5.336080e-04    1         1  ON     5
       uuBe_6                 3.525935e-04    1         1  ON     6
       uuBe_7                 2.542142e-03    1         1  ON     7
       uuBe_8                 1.457268e-02    1         1  ON     8
       uuBe_9                 1.117644e-03    1         1  ON     9
      uuBe_10                 2.581943e-03    1         1  ON    10
      uuBe_11                -1.191947e-02    1         1  ON    11
      uuBe_12                -5.745238e-03    1         1  ON    12
      uuBe_13                 2.269330e-04    1         1  ON    13
      uuBe_14                 3.052657e-03    1         1  ON    14
      uuBe_15                 6.992227e-04    1         1  ON    15
      uuBe_16                -2.688494e-03    1         1  ON    16
      uuBe_17                -1.304558e-03    1         1  ON    17
      uuBe_18                 3.556285e-03    1         1  ON    18
      uuBe_19                 3.793836e-03    1         1  ON    19
      uuBe_20                 2.105847e-03    1         1  ON    20
      uuBe_21                 2.849110e-03    1         1  ON    21
      uuBe_22                -1.985234e-03    1         1  ON    22
      uuBe_23                 9.078883e-04    1         1  ON    23
      uuBe_24                -3.161483e-03    1         1  ON    24
      uuBe_25                 1.512009e-03    1         1  ON    25

     Ion: Be   electron-electron: u - d
      Number of parameters for e-e: 3, for e-I: 3
      Cutoff radius: 5

         Name                        Value Type Recompute Use Index
      ------- ---------------------------- ---- --------- --- -----
       udBe_0                -1.160539e-03    1         1  ON     0
       udBe_1                -2.755074e-03    1         1  ON     1
       udBe_2                 1.516250e-02    1         1  ON     2
       udBe_3                -1.711950e-03    1         1  ON     3
       udBe_4                -2.098466e-03    1         1  ON     4
       udBe_5                -3.222742e-04    1         1  ON     5
       udBe_6                -7.618687e-04    1         1  ON     6
       udBe_7                -5.314211e-03    1         1  ON     7
       udBe_8                 3.366461e-02    1         1  ON     8
       udBe_9                 1.927499e-03    1         1  ON     9
      udBe_10                 4.371280e-03    1         1  ON    10
      udBe_11                -2.155972e-02    1         1  ON    11
      udBe_12                -1.828589e-02    1         1  ON    12
      udBe_13                 1.317123e-03    1         1  ON    13
      udBe_14                 1.310290e-02    1         1  ON    14
      udBe_15                 1.731656e-03    1         1  ON    15
      udBe_16                -6.865278e-04    1         1  ON    16
      udBe_17                 9.980543e-03    1         1  ON    17
      udBe_18                 1.844640e-02    1         1  ON    18
      udBe_19                 8.853905e-03    1         1  ON    19
      udBe_20                -1.189316e-02    1         1  ON    20
      udBe_21                -1.922823e-03    1         1  ON    21
      udBe_22                -1.376991e-03    1         1  ON    22
      udBe_23                 1.308018e-02    1         1  ON    23
      udBe_24                -4.441596e-03    1         1  ON    24
      udBe_25                 8.485835e-04    1         1  ON    25

  QMCHamiltonian::addOperator Kinetic to H, physical Hamiltonian 

 Hamiltonian and observables
 ---------------------------
  Name: h0

  QMCHamiltonian::addOperator ElecElec to H, physical Hamiltonian 
QMCHamiltonian::addOperatorType added type coulomb named ElecElec
  QMCHamiltonian::addOperator IonIon to H, physical Hamiltonian 
QMCHamiltonian::addOperatorType added type coulomb named IonIon
  QMCHamiltonian::addOperator ElecIon to H, physical Hamiltonian 
QMCHamiltonian::addOperatorType added type coulomb named ElecIon

  QMCHamiltonian::add2WalkerProperty added
    4 to P::PropertyList 
    0 to P::Collectables 
    starting Index of the observables in P::PropertyList = 9
ParticleSetPool::randomize 1 ParticleSet.
<init source="ion0" target="e">
</init>
  Initialization Execution time = 0.09987 secs
=========================================================
 Summary of QMC systems 
=========================================================
ParticleSetPool has: 

  ParticleSet 'e' contains 8 particles :  u(4) d(4)

    u  5.4567462879e-01  1.1988757063e+00 -9.0826000696e-01
    u -1.4692950359e+00 -1.0839144827e-01 -6.2403797277e-01
    u  5.8961738038e+00 -3.2605087954e-01 -9.3126776613e-01
    u  5.4250078288e+00  6.2887151030e-01  1.2421727655e+00
    d  1.2294858156e+00  7.3690730451e-01 -7.1086725473e-01
    d -3.4676133570e-01 -1.3269143703e+00  8.2404783227e-01
    d  4.6578601394e+00 -1.2450998705e+00 -1.0046272547e+00
    d  3.1715465912e+00  6.1079977841e-01  2.0107621546e-01

  Distance table for dissimilar particles (A-B):
    source: ion0  target: e
    Using structure-of-arrays (SoA) data layout
    Distance computations use open boundary conditions in 3D.

  Distance table for similar particles (A-A):
    source/target: e
    Using structure-of-arrays (SoA) data layout
    Distance computations use open boundary conditions in 3D.


  ParticleSet 'ion0' contains 2 particles :  Be(2)

    Be  0.0000000000e+00  0.0000000000e+00  0.0000000000e+00
    Be  4.6366377100e+00  0.0000000000e+00  0.0000000000e+00

  Distance table for similar particles (A-A):
    source/target: ion0
    Using structure-of-arrays (SoA) data layout
    Distance computations use open boundary conditions in 3D.


  Hamiltonian h0
  Kinetic         Kinetic energy
  ElecElec        CoulombAB source=e

  IonIon          CoulombAA source/target ion0

  ElecIon         CoulombAA source/target ion0



=========================================================
  Start VMC
  File Root dmc.s000 append = no 
=========================================================
Resetting walkers
  Adding 1 walkers to 0 existing sets
  Total number of walkers: 1.6000000000e+01
  Total weight: 1.6000000000e+01
  Resetting Properties of the walkers 1 x 13

<vmc function="put">
  qmc_counter=0  my_counter=0
  time step      = 3.0000000000e-01
  blocks         = 100
  steps          = 10
  substeps       = 3
  current        = 0
  target samples = 4.0960000000e+03
  walkers/mpi    = 1

  stepsbetweensamples = 3
<parameter name="blocks">100</parameter>
<parameter name="blocks_between_recompute">0</parameter>
<parameter name="check_properties">100</parameter>
<parameter name="checkproperties">100</parameter>
<parameter name="current">0</parameter>
<parameter name="dmcwalkersperthread">2.5600000000e+02</parameter>
<parameter name="max_seconds">360000</parameter>
<parameter name="maxcpusecs">360000</parameter>
<parameter name="record_configs">0</parameter>
<parameter name="record_walkers">3</parameter>
<parameter name="recordconfigs">0</parameter>
<parameter name="recordwalkers">3</parameter>
<parameter name="samples">4.0960000000e+03</parameter>
<parameter name="samplesperthread">2.5600000000e+02</parameter>
<parameter name="spinmass">1.0000000000e+00</parameter>
<parameter name="steps">10</parameter>
<parameter name="stepsbetweensamples">3</parameter>
<parameter name="store_configs">0</parameter>
<parameter name="storeconfigs">0</parameter>
<parameter name="sub_steps">3</parameter>
<parameter name="substeps">3</parameter>
<parameter name="tau">3.0000000000e-01</parameter>
<parameter name="time_step">3.0000000000e-01</parameter>
<parameter name="timestep">3.0000000000e-01</parameter>
<parameter name="use_drift">yes</parameter>
<parameter name="usedrift">yes</parameter>
<parameter name="walkers">1</parameter>
<parameter name="warmup_steps">30</parameter>
<parameter name="warmupsteps">30</parameter>
  DumpConfig==false Nothing (configurations, state) will be saved.
  Walker Samples are dumped every 3 steps.
</vmc>
  Set drift_modifier UNR parameter a = 1.0000000000e+00
  Adding a default LocalEnergyEstimator for the MainEstimator 
  Initial partition of walkers 0 1 

  Using Particle by Particle moves
  Walker moves with drift
  Total Sample Size   =4096
  Walker distribution on root = 0 1 
========================================================================
--- Memory usage report : Memory Usage after the buffer registration ---
========================================================================
Available memory on node 0, free + buffers :   21681 MiB
Memory footprint by rank 0 on node 0       :      92 MiB
========================================================================
  Anonymous Buffer size per walker : 19232 Bytes.
MEMORY increase 0 MB VMC::resetRun
====================================================
  SimpleFixedNodeBranch::finalize after a VMC block
    QMC counter        = 0
    time step          = 0.3
    reference energy   = -29.2916
    reference variance = 0.221323
====================================================
  QMC Execution time = 7.5364e-01 secs
BRANCH resetRun
 SimpleFixedNodeBranch::resetRun detected changes in <parameter>'s 
 BranchMode : 0000001100 0000001100
 iParam (old):                 30                 1                 0              4096                16                16                 1                 0
 iParam (new):                100                 1                 0              4096                16                16                 1                 0
 vParam (old):   3.0000000000e-01  3.0000000000e-01 -2.9291629921e+01 -2.9291629921e+01  1.0000000000e+00  1.0000000000e+00  1.0000000000e+00  1.0000000000e+00  2.2132265660e-01 -2.9291629921e+01  1.0000000000e+00  1.0000000000e+00  1.0000000000e+01  1.0000000000e+00  1.0000000000e+00  1.0000000000e+00  1.0000000000e+00
 vParam (new):   2.5000000000e-03  3.0000000000e-01 -2.9291629921e+01 -2.9291629921e+01  1.0000000000e+00  1.0000000000e+00  1.0000000000e+00  1.0000000000e+00  2.2132265660e-01 -2.9291629921e+01  1.0000000000e+00  1.0000000000e+00  1.0000000000e+01  1.0000000000e+00  1.0000000000e+00  1.0000000000e+00  1.0000000000e+00

=========================================================
  Start DMC
  File Root dmc.s001 append = no 
=========================================================
Using existing walkers 
  Resetting Properties of the walkers 1 x 13
  Set drift_modifier UNR parameter a = 1.0000000000e+00
  Cannot make clones again. Use existing 1 clones
  Total number of walkers: 4.0960000000e+03
  Total weight: 4.0960000000e+03
  Creating WalkerController: target  number of walkers = 4096
  Using WalkerControlMPI for dynamic population control.
  START ALL OVER 
  WalkerControlBase parameters 
    maxCopy = 2
    Max Walkers per MPI rank 513
    Min Walkers per MPI rank 52
    Using non-blocking send/recv
  QMC counter      = 1
  time step        = 2.5000000000e-03
  effective time step = 2.5000000000e-03
  trial energy     = -2.9291629921e+01
  reference energy = -2.9291629921e+01
  Feedback = 1.0000000000e+00
  reference variance = 2.2132265660e-01
  target walkers = 4096
  branching cutoff scheme classic
  branch cutoff = 5.0000000000e+01 7.5000000000e+01
  Max and minimum walkers per node= 513 52
  QMC Status (BranchMode) = 0000001101
Using DMCUpdatePbyPWithRejectionFast
  Initial partition of walkers on a node: 0 256 
  Updates by particle-by-particle moves
  DMC moves are rejected when a node crossing is detected
========================================================================
--- Memory usage report : Memory Usage after the buffer registration ---
========================================================================
Available memory on node 0, free + buffers :   21534 MiB
Memory footprint by rank 0 on node 0       :     104 MiB
========================================================================
SimpleFixedNodeBranch::checkParameters 
  Average Energy of a population  = -29.2916
  Energy Variance = 0.221323

  Fluctuating population
  Persistent walkers are killed after 1 MC sweeps
  BranchInterval = 1
  Steps per block = 80
  Number of blocks = 400

  DMC Engine Initialization = 1.9011974335e-02 secs

 Warmup is completed after 100

  TauEff     = 2.4854259650e-03
 TauEff/Tau = 9.9417038599e-01
  Etrial     = -2.9482029869e+01
 Running average of energy = -2.9286662143e+01
                  Variance = 2.1974161579e-01
branch cutoff = 1.0000000000e+01 1.5000000000e+01
====================================================
  SimpleFixedNodeBranch::finalize after a DMC block
    QMC counter                   = 1
    time step                     = 0.0025
    effective time step           = 0.00248529
    trial energy                  = -29.315
    reference energy              = -29.3191
    reference variance            = 0.219742
    target walkers                = 4096
    branch cutoff                 = 10 15
    Max and minimum walkers per node= 513 52
    Feedback                      = 1
    QMC Status (BranchMode)       = 0000001111
====================================================
  QMC Execution time = 8.7452e+02 secs
  Total Execution time = 8.7528e+02 secs

=========================================================
  A new xml input file : dmc.s001.cont.xml

Use --enable-timers=<value> command line option to increase or decrease level of timing information
Stack timer profile
Timer      Inclusive_time  Exclusive_time  Calls       Time_per_call
Total       875.3784     0.0001              1     875.378416777
  DMC       874.5243   874.5243              1     874.524333000
  Startup     0.0999     0.0999              1       0.099933863
  VMC         0.7541     0.7541              1       0.754078150

QMCPACK execution completed successfully
