#INFO: **** input file is /home/abenali/Work/WorkShop/qmcpack_workshop_2021/qmc_workshop_2021/week4_molecules/03_qmc_ccECP/runs/O2/Dist_1.3/SCF/scf.py ****

#! /usr/bin/env python3

import numpy as np
from numpy import array

### generated pyscfimport text ###
from pyscf import df, scf, dft
### end generated pyscfimport text ###





### generated system text ###
from pyscf import gto as gto_loc
mol = gto_loc.Mole()
mol.verbose  = 5
mol.atom     = '''
               O    0.00000000   0.00000000   0.00000000
               O    0.00000000   0.00000000   1.30000000
               '''
mol.basis    = 'ccecp-ccpvtz'
mol.unit     = 'A'
mol.ecp      = 'ccecp'
mol.charge   = 0
mol.spin     = 2
mol.symmetry = True
mol.build()
### end generated system text ###




### generated calculation text ###
mf = scf.ROKS(mol).density_fit()
mf.max_cycle=200
mf.level_shift=0.0
mf.xc          = 'SCAN'
mf.tol         = '1e-10'
e_scf = mf.kernel()
### end generated calculation text ###



### generated conversion text ###
from PyscfToQmcpack import savetoqmcpack
savetoqmcpack(mol,mf,'scf')
### end generated conversion text ###

#INFO: ******************** input file end ********************


System: uname_result(system='Linux', node='abenali', release='5.11.0-38-generic', version='#42~20.04.1-Ubuntu SMP Tue Sep 28 20:41:07 UTC 2021', machine='x86_64', processor='x86_64')  Threads 1
Python 3.7.11 (default, Sep  9 2021, 02:06:38) 
[GCC 9.3.0]
numpy 1.20.3  scipy 1.6.2
Date: Mon Oct 25 18:42:07 2021
PySCF version 2.0.0a
PySCF path  /home/abenali/Work/src/pyscf
GIT HEAD (branch master) 3e8ba375fd4229f000289589fd02193633380853

[CONFIG] conf_file None
[INPUT] verbose = 5
[INPUT] max_memory = 4000 
[INPUT] num. atoms = 2
[INPUT] num. electrons = 12
[INPUT] charge = 0
[INPUT] spin (= nelec alpha-beta = 2S) = 2
[INPUT] symmetry True subgroup None
[INPUT] Mole.unit = A
[INPUT]  1 O      0.000000000000   0.000000000000   0.000000000000 AA    0.000000000000   0.000000000000   0.000000000000 Bohr
[INPUT]  2 O      0.000000000000   0.000000000000   1.300000000000 AA    0.000000000000   0.000000000000   2.456643961935 Bohr
[INPUT] ---------------- BASIS SET ---------------- 
[INPUT] l, kappa, [nprim/nctr], expnt,             c_1 c_2 ...
[INPUT] O
[INPUT] 0    0    [9    /1   ]  54.775216         -0.0012444
                                25.616801         0.010733
                                11.980245         0.0018889
                                6.992317          -0.1742537
                                2.620277          0.0017622
                                1.225429          0.3161846
                                0.577797          0.4512023
                                0.268022          0.3121534
                                0.125346          0.0511167
[INPUT] 0    0    [1    /1   ]  1.686633             1
[INPUT] 0    0    [1    /1   ]  0.237997             1
[INPUT] 1    0    [9    /1   ]  22.217266         0.0104866
                                10.74755          0.0366435
                                5.315785          0.0803674
                                2.660761          0.162701
                                1.331816          0.2377791
                                0.678626          0.2811422
                                0.333673          0.2643189
                                0.167017          0.1466014
                                0.083598          0.0458145
[INPUT] 1    0    [1    /1   ]  0.600621             1
[INPUT] 1    0    [1    /1   ]  0.184696             1
[INPUT] 2    0    [1    /1   ]  2.404278             1
[INPUT] 2    0    [1    /1   ]  0.66934              1
[INPUT] 3    0    [1    /1   ]  1.423104             1

nuclear repulsion = 14.6541381485538
point group symmetry = Dooh
num. orbitals of irrep A1g = 9
num. orbitals of irrep E1gx = 6
num. orbitals of irrep E1gy = 6
num. orbitals of irrep A1u = 9
num. orbitals of irrep E1uy = 6
num. orbitals of irrep E1ux = 6
num. orbitals of irrep E2gx = 3
num. orbitals of irrep E2gy = 3
num. orbitals of irrep E3gx = 1
num. orbitals of irrep E3gy = 1
num. orbitals of irrep E2uy = 3
num. orbitals of irrep E2ux = 3
num. orbitals of irrep E3uy = 1
num. orbitals of irrep E3ux = 1
number of shells = 18
number of NR pGTOs = 122
number of NR cGTOs = 58
basis = ccecp-ccpvtz
ecp = ccecp
CPU time:         0.41


******** <class 'pyscf.df.df_jk.density_fit.<locals>.DFHF'> ********
method = DFHF-SymAdaptedROKS-SymAdaptedROHF-ROHF-RHF
initial guess = minao
damping factor = 0
level_shift factor = 0.0
DIIS = <class 'pyscf.scf.diis.CDIIS'>
diis_start_cycle = 1
diis_space = 8
SCF conv_tol = 1e-09
SCF conv_tol_grad = None
SCF max_cycles = 200
direct_scf = True
direct_scf_tol = 1e-13
chkfile to save SCF result = /home/abenali/Work/WorkShop/qmcpack_workshop_2021/qmc_workshop_2021/week4_molecules/03_qmc_ccECP/runs/O2/Dist_1.3/SCF/tmpmgxtdbdu
max_memory 4000 MB (current use 112 MB)
num. doubly occ = 5  num. singly occ = 2
XC library pyscf.dft.libxc version 5.1.5
    S. Lehtola, C. Steigemann, M. J. Oliveira, and M. A. Marques, SoftwareX 7, 1 (2018)
XC functionals = SCAN
    J. Sun, A. Ruzsinszky, and J. P. Perdew, Phys. Rev. Lett. 115, 036402 (2015)
    J. Sun, A. Ruzsinszky, and J. P. Perdew, Phys. Rev. Lett. 115, 036402 (2015)
radial grids: 
    Treutler-Ahlrichs [JCP 102, 346 (1995); DOI:10.1063/1.469408] (M4) radial grids
    
becke partition: Becke, JCP 88, 2547 (1988); DOI:10.1063/1.454033
pruning grids: <function nwchem_prune at 0x7f97c0d27dd0>
grids dens level: 3
symmetrized grids: True
atomic radii adjust function: <function treutler_atomic_radii_adjust at 0x7f97c0d30290>
small_rho_cutoff = 1e-07
Freeze 0 electrons in irreps []
    12 free electrons in irreps A1g E1gx E1gy A1u E1uy E1ux E2gx E2gy E3gx E3gy E2uy E2ux E3uy E3ux
Set gradient conv threshold to 3.16228e-05
atom O rad-grids = 75, ang-grids = [ 50  50  50  50  50  50  50  50  50  50  50  50  50  50  50  50  50  50
  50  50  50  50  86  86  86  86  86  86  86  86  86 266 266 266 266 266
 266 266 302 302 302 302 302 302 302 302 302 302 302 302 302 302 302 302
 302 302 302 266 266 266 266 266 266 266 266 266 266 266 266 266 266 266
 266 266 266]
tot grids = 28524
Drop grids 2378
    CPU time for setting up grids      0.04 sec, wall time      0.08 sec
nelec by numeric integration = [6.00000001 6.00000001]
    CPU time for vxc      0.45 sec, wall time      0.46 sec
Even tempered Gaussians are generated as DF auxbasis for  O
  ETB auxbasis for O  [[0, [64.177152, 1]], [0, [32.088576, 1]], [0, [16.044288, 1]], [0, [8.022144, 1]], [0, [4.011072, 1]], [0, [2.005536, 1]], [0, [1.002768, 1]], [0, [0.501384, 1]], [0, [0.250692, 1]], [1, [52.41108427692326, 1]], [1, [26.20554213846163, 1]], [1, [13.102771069230815, 1]], [1, [6.551385534615408, 1]], [1, [3.275692767307704, 1]], [1, [1.637846383653852, 1]], [1, [0.818923191826926, 1]], [1, [0.409461595913463, 1]], [1, [0.2047307979567315, 1]], [2, [42.802176, 1]], [2, [21.401088, 1]], [2, [10.700544, 1]], [2, [5.350272, 1]], [2, [2.675136, 1]], [2, [1.337568, 1]], [2, [0.668784, 1]], [2, [0.334392, 1]], [2, [0.167196, 1]], [3, [7.569571782318998, 1]], [3, [3.784785891159499, 1]], [3, [1.8923929455797495, 1]], [3, [0.9461964727898747, 1]], [3, [0.47309823639493737, 1]], [4, [5.35472, 1]], [4, [2.67736, 1]], [4, [1.33868, 1]]]
num shells = 70, num cGTOs = 286
    CPU time for df-vj      0.09 sec, wall time      0.09 sec
E1 = -81.20610233432475  Ecoul = 41.266362176151304  Exc = -6.583990652619157
init E= -31.8695926622388
cond(S) = 798.7460712312062
    CPU time for initialize scf      0.63 sec, wall time      0.74 sec
HOMO (E1gx) = -0.277137627125756  LUMO (A1u) = 0.0280383216585601
double occ irrep_nelec = [2, 0, 0, 1, 1, 1, 0, 0, 0, 0, 0, 0, 0, 0]
single occ irrep_nelec = [0, 1, 1, 0, 0, 0, 0, 0, 0, 0, 0, 0, 0, 0]
                  Roothaan           | alpha              | beta
  Highest 2-occ = -0.480505866719211 | -0.480505866719211 | -0.480505866719211
  Lowest 0-occ =  0.0280383216585601 | 0.0280383216585589 | 0.0280383216585589
  1-occ =         -0.277137627125756 | -0.277137627125756 | -0.277137627125756
  1-occ =         -0.277137627125759 | -0.277137627125759 | -0.277137627125759
  Roothaan mo_energy =
[-1.20593177 -0.5303801   0.47609792  0.74675908  1.96403729  3.02658349
  4.91285777  7.50684679 15.31832373 -0.27713763  0.53454576  2.12731488
  3.10159346  6.30530832  7.25096579 -0.27713763  0.53454576  2.12731488
  3.10159346  6.30530832  7.25096579 -0.85556328  0.02803832  0.3898885
  1.35455492  2.09212825  4.17958732  6.52673521  6.85540932 18.88478146
 -0.48050587  0.42640137  1.26805506  2.77413878  4.69330762  6.55709318
 -0.48050587  0.42640137  1.26805506  2.77413878  4.69330762  6.55709318
  1.28141999  4.71169173  6.32459721  1.28132494  4.71206424  6.32443724
  5.20058241  5.20058241  1.62801159  5.6083907   6.51890621  1.62775413
  5.60854966  6.51870794  5.04035361  5.04035361]
nelec by numeric integration = [7.00000002 5.        ]
    CPU time for vxc      0.35 sec, wall time      0.36 sec
    CPU time for df-vj      0.09 sec, wall time      0.09 sec
E1 = -81.62705072168899  Ecoul = 41.84603285862826  Exc = -6.798896208752493
cycle= 1 E= -31.9257759232594  delta_E= -0.0562  |g|= 0.193  |ddm|=  1.9
    CPU time for cycle= 1      0.45 sec, wall time      0.46 sec
HOMO (E1gx) = -0.220849528659614  LUMO (A1u) = 0.0783190029324677
double occ irrep_nelec = [2, 0, 0, 1, 1, 1, 0, 0, 0, 0, 0, 0, 0, 0]
single occ irrep_nelec = [0, 1, 1, 0, 0, 0, 0, 0, 0, 0, 0, 0, 0, 0]
                  Roothaan           | alpha              | beta
  Highest 2-occ = -0.439707139281957 | -0.483149746589571 | -0.393568010558466
  Lowest 0-occ =  0.0783190029324677 | 0.0544804496711443 |  0.102157556193793
  1-occ =         -0.220849528659614 | -0.281548945776466 | -0.159485577435158
  1-occ =         -0.220849528659617 | -0.281548945776469 |  -0.15948557743516
  Roothaan mo_energy =
[-1.18715822 -0.46660451  0.51129906  0.78295851  1.99878493  3.07281798
  4.91881501  7.55418327 15.39472421 -0.22084953  0.56465439  2.1680997
  3.15437619  6.34015257  7.31673554 -0.22084953  0.56465439  2.1680997
  3.15437619  6.34015257  7.31673554 -0.78529393  0.078319    0.43863241
  1.38704033  2.14322872  4.24204278  6.58681037  6.89398714 18.96005468
 -0.43970714  0.45121081  1.28962443  2.82617563  4.71560541  6.60414509
 -0.43970714  0.45121081  1.28962443  2.82617563  4.71560541  6.60414509
  1.30810961  4.74260228  6.38118978  1.3082555   4.74275953  6.38072379
  5.23957984  5.23957984  1.66025708  5.64777866  6.5802412   1.66006074
  5.64762648  6.58062741  5.07730003  5.07730003]
nelec by numeric integration = [7.00000001 5.        ]
    CPU time for vxc      0.35 sec, wall time      0.36 sec
    CPU time for df-vj      0.09 sec, wall time      0.09 sec
E1 = -81.42771952959177  Ecoul = 41.56827999729263  Exc = -6.725125306920564
cycle= 2 E= -31.9304266906659  delta_E= -0.00465  |g|= 0.0889  |ddm|= 0.244
    CPU time for cycle= 2      0.46 sec, wall time      0.46 sec
HOMO (E1gx) = -0.237176716050872  LUMO (A1u) = 0.0663265728321527
double occ irrep_nelec = [2, 0, 0, 1, 1, 1, 0, 0, 0, 0, 0, 0, 0, 0]
single occ irrep_nelec = [0, 1, 1, 0, 0, 0, 0, 0, 0, 0, 0, 0, 0, 0]
                  Roothaan           | alpha              | beta
  Highest 2-occ = -0.451100430788625 | -0.503363386656291 | -0.408783236554757
  Lowest 0-occ =  0.0663265728321527 | 0.0370634738714874 | 0.0852002586612415
  1-occ =         -0.237176716050872 | -0.306170387474924 | -0.181687175602601
  1-occ =         -0.237176716050875 | -0.306170387474927 | -0.181687175602603
  Roothaan mo_energy =
[-1.19221034 -0.48773406  0.5039211   0.77371873  1.98632069  3.0573243
  4.91147065  7.53537721 15.36755367 -0.23717672  0.55821016  2.15616238
  3.13951459  6.32908519  7.29732722 -0.23717672  0.55821016  2.15616238
  3.13951459  6.32908519  7.29732722 -0.8059083   0.06632657  0.42652941
  1.37824035  2.12911041  4.22758631  6.56542492  6.88213137 18.93385725
 -0.45110043  0.44567567  1.28201231  2.80964914  4.70775587  6.58448538
 -0.45110043  0.44567567  1.28201231  2.80964914  4.70775587  6.58448538
  1.3029028   4.73237116  6.36329866  1.30301784  4.73249924  6.36320412
  5.22959805  5.22959805  1.65210032  5.63860464  6.56063489  1.65191948
  5.63844522  6.56064654  5.0676822   5.0676822 ]
nelec by numeric integration = [7.00000001 5.        ]
    CPU time for vxc      0.35 sec, wall time      0.36 sec
    CPU time for df-vj      0.09 sec, wall time      0.09 sec
E1 = -81.53782527542592  Ecoul = 41.71142766681055  Exc = -6.759612538074414
cycle= 3 E= -31.9318719981359  delta_E= -0.00145  |g|= 0.0108  |ddm|= 0.0972
    CPU time for cycle= 3      0.45 sec, wall time      0.46 sec
HOMO (E1gx) = -0.233037046542163  LUMO (A1u) = 0.0702304153165227
double occ irrep_nelec = [2, 0, 0, 1, 1, 1, 0, 0, 0, 0, 0, 0, 0, 0]
single occ irrep_nelec = [0, 1, 1, 0, 0, 0, 0, 0, 0, 0, 0, 0, 0, 0]
                  Roothaan           | alpha              | beta
  Highest 2-occ = -0.447785367555907 | -0.494181974632614 | -0.399646108292538
  Lowest 0-occ =  0.0702304153165227 | 0.0471133069059319 | 0.0953460758404878
  1-occ =         -0.233037046542163 | -0.294282805814687 | -0.169647057910719
  1-occ =         -0.233037046542166 |  -0.29428280581469 | -0.169647057910721
  Roothaan mo_energy =
[-1.1884413  -0.48359846  0.50555794  0.77617051  1.98901706  3.06174491
  4.91453876  7.53990202 15.37328544 -0.23303705  0.55962149  2.15877673
  3.1432593   6.333108    7.30121609 -0.23303705  0.55962149  2.15877673
  3.1432593   6.333108    7.30121609 -0.80202308  0.07023042  0.42898738
  1.38066775  2.13219416  4.23128768  6.56995214  6.88579994 18.94013243
 -0.44778537  0.44734402  1.28443243  2.81337572  4.71089933  6.58890757
 -0.44778537  0.44734402  1.28443243  2.81337572  4.71089933  6.58890757
  1.3050157   4.73538813  6.36773549  1.3051536   4.73553049  6.36768286
  5.23262563  5.23262563  1.65440911  5.6418157   6.56514929  1.65421943
  5.64167148  6.56513315  5.07064643  5.07064643]
nelec by numeric integration = [7.00000001 5.        ]
    CPU time for vxc      0.35 sec, wall time      0.35 sec
    CPU time for df-vj      0.09 sec, wall time      0.10 sec
E1 = -81.50787856752359  Ecoul = 41.67433238869622  Exc = -6.7524823657215745
cycle= 4 E= -31.9318903959951  delta_E= -1.84e-05  |g|= 0.00397  |ddm|= 0.0155
    CPU time for cycle= 4      0.45 sec, wall time      0.46 sec
HOMO (E1gx) = -0.23410115981674  LUMO (A1u) = 0.0691427795097433
double occ irrep_nelec = [2, 0, 0, 1, 1, 1, 0, 0, 0, 0, 0, 0, 0, 0]
single occ irrep_nelec = [0, 1, 1, 0, 0, 0, 0, 0, 0, 0, 0, 0, 0, 0]
                  Roothaan           | alpha              | beta
  Highest 2-occ = -0.448851630617574 | -0.496888660658683 | -0.402327415850479
  Lowest 0-occ =  0.0691427795097433 | 0.0442323938486851 |  0.092432486375281
  1-occ =          -0.23410115981674 | -0.297210022567466 | -0.172512211095892
  1-occ =         -0.234101159816742 | -0.297210022567469 | -0.172512211095895
  Roothaan mo_energy =
[-1.18972216 -0.48462087  0.50515405  0.77544108  1.98821863  3.06049338
  4.91328168  7.53865947 15.37165224 -0.23410116  0.55918678  2.15815814
  3.14218953  6.33182257  7.30029466 -0.23410116  0.55918678  2.15815814
  3.14218953  6.33182257  7.30029466 -0.80302607  0.06914278  0.42850196
  1.38005367  2.13151528  4.23037859  6.56886994  6.88463199 18.93830524
 -0.44885163  0.44679372  1.28359576  2.81225405  4.70993829  6.58759946
 -0.44885163  0.44679372  1.28359576  2.81225405  4.70993829  6.58759946
  1.30431957  4.73448788  6.36645805  1.30445897  4.73463357  6.36641305
  5.23180847  5.23180847  1.65377146  5.6408924   6.56397087  1.65358221
  5.64075518  6.56394746  5.06980918  5.06980918]
nelec by numeric integration = [7.00000001 5.        ]
    CPU time for vxc      0.35 sec, wall time      0.35 sec
    CPU time for df-vj      0.09 sec, wall time      0.09 sec
E1 = -81.5177752637698  Ecoul = 41.68638626613406  Exc = -6.754642773972574
cycle= 5 E= -31.9318936230545  delta_E= -3.23e-06  |g|= 0.000358  |ddm|= 0.00491
    CPU time for cycle= 5      0.45 sec, wall time      0.46 sec
HOMO (E1gx) = -0.233995529468849  LUMO (A1u) = 0.0692373903884147
double occ irrep_nelec = [2, 0, 0, 1, 1, 1, 0, 0, 0, 0, 0, 0, 0, 0]
single occ irrep_nelec = [0, 1, 1, 0, 0, 0, 0, 0, 0, 0, 0, 0, 0, 0]
                  Roothaan           | alpha              | beta
  Highest 2-occ = -0.448770589664509 | -0.495992575288499 | -0.401410091188685
  Lowest 0-occ =  0.0692373903884147 | 0.0452024601903282 |  0.093419582392713
  1-occ =         -0.233995529468849 | -0.296284238793243 | -0.171563708029862
  1-occ =         -0.233995529468851 | -0.296284238793245 | -0.171563708029864
  Roothaan mo_energy =
[-1.18961972 -0.48453426  0.50517401  0.77549936  1.98827006  3.06060027
  4.91334731  7.53876369 15.37179908 -0.23399553  0.55920988  2.15821332
  3.14227946  6.3319258   7.30038488 -0.23399553  0.55920988  2.15821332
  3.14227946  6.3319258   7.30038488 -0.80294348  0.06923739  0.42854176
  1.38011264  2.13157933  4.23047381  6.56897821  6.88471864 18.93847429
 -0.44877059  0.44683104  1.28364742  2.81233969  4.71001828  6.5877018
 -0.44877059  0.44683104  1.28364742  2.81233969  4.71001828  6.5877018
  1.30437485  4.73455996  6.36656903  1.30451466  4.73470508  6.36652776
  5.23188695  5.23188695  1.65383026  5.64097904  6.5640824   1.65364084
  5.64084165  6.56405633  5.06988499  5.06988499]
nelec by numeric integration = [7.00000001 5.        ]
    CPU time for vxc      0.35 sec, wall time      0.35 sec
    CPU time for df-vj      0.09 sec, wall time      0.09 sec
E1 = -81.51699299535414  Ecoul = 41.685432047792276  Exc = -6.754470848496119
cycle= 6 E= -31.9318936475041  delta_E= -2.44e-08  |g|= 5.36e-06  |ddm|= 0.000369
    CPU time for cycle= 6      0.45 sec, wall time      0.46 sec
HOMO (E1gx) = -0.233997321934045  LUMO (A1u) = 0.0692359208808522
double occ irrep_nelec = [2, 0, 0, 1, 1, 1, 0, 0, 0, 0, 0, 0, 0, 0]
single occ irrep_nelec = [0, 1, 1, 0, 0, 0, 0, 0, 0, 0, 0, 0, 0, 0]
                  Roothaan           | alpha              | beta
  Highest 2-occ = -0.448772272142418 | -0.496064451576131 | -0.401481752365078
  Lowest 0-occ =  0.0692359208808522 | 0.0451266251845972 | 0.0933434322909839
  1-occ =         -0.233997321934045 | -0.296359206517045 | -0.171637206732314
  1-occ =         -0.233997321934047 | -0.296359206517047 | -0.171637206732316
  Roothaan mo_energy =
[-1.18962128 -0.48453566  0.50517286  0.77549844  1.9882689   3.06059844
  4.91334588  7.53876236 15.37179713 -0.23399732  0.55920886  2.15821231
  3.14227802  6.33192415  7.30038389 -0.23399732  0.55920886  2.15821231
  3.14227802  6.33192415  7.30038389 -0.80294513  0.06923592  0.42854039
  1.38011177  2.13157819  4.23047287  6.56897717  6.88471743 18.93847229
 -0.44877227  0.44683008  1.28364596  2.81233792  4.71001751  6.58770007
 -0.44877227  0.44683008  1.28364596  2.81233792  4.71001751  6.58770007
  1.30437395  4.73455878  6.3665673   1.30451374  4.73470384  6.36652611
  5.231886    5.231886    1.6538295   5.64097828  6.56408082  1.65364008
  5.64084088  6.56405471  5.06988391  5.06988391]
nelec by numeric integration = [7.00000001 5.        ]
    CPU time for vxc      0.35 sec, wall time      0.35 sec
    CPU time for df-vj      0.09 sec, wall time      0.09 sec
E1 = -81.5170054055285  Ecoul = 41.68544738298078  Exc = -6.754473773516041
cycle= 7 E= -31.9318936475099  delta_E= -5.76e-12  |g|= 6.04e-07  |ddm|= 7.06e-06
    CPU time for cycle= 7      0.45 sec, wall time      0.46 sec
HOMO (E1gx) = -0.233996990379386  LUMO (A1u) = 0.0692362347658475
double occ irrep_nelec = [2, 0, 0, 1, 1, 1, 0, 0, 0, 0, 0, 0, 0, 0]
single occ irrep_nelec = [0, 1, 1, 0, 0, 0, 0, 0, 0, 0, 0, 0, 0, 0]
                  Roothaan           | alpha              | beta
  Highest 2-occ = -0.448771982108719 | -0.496063339958685 | -0.401480624258753
  Lowest 0-occ =  0.0692362347658475 | 0.0451278015658636 | 0.0933446679658245
  1-occ =         -0.233996990379386 | -0.296358009350032 | -0.171635982292868
  1-occ =         -0.233996990379389 | -0.296358009350035 |  -0.17163598229287
  Roothaan mo_energy =
[-1.18962096 -0.48453533  0.50517302  0.77549867  1.98826915  3.06059879
  4.91334616  7.53876272 15.37179757 -0.23399699  0.55920901  2.15821253
  3.14227835  6.33192445  7.3003842  -0.23399699  0.55920901  2.15821253
  3.14227835  6.33192445  7.3003842  -0.80294481  0.06923623  0.4285406
  1.38011198  2.13157845  4.23047317  6.56897751  6.88471775 18.93847276
 -0.44877198  0.44683026  1.28364618  2.81233823  4.71001778  6.58770042
 -0.44877198  0.44683026  1.28364618  2.81233823  4.71001778  6.58770042
  1.30437415  4.73455904  6.36656767  1.30451394  4.7347041   6.36652647
  5.23188627  5.23188627  1.65382971  5.64097855  6.56408119  1.65364029
  5.64084115  6.56405507  5.06988417  5.06988417]
nelec by numeric integration = [7.00000001 5.        ]
    CPU time for vxc      0.35 sec, wall time      0.35 sec
    CPU time for df-vj      0.09 sec, wall time      0.09 sec
E1 = -81.51700307422645  Ecoul = 41.685444504208455  Exc = -6.754473226045844
Extra cycle  E= -31.93189364751  delta_E= -9.24e-14  |g|= 4.74e-07  |ddm|= 1.21e-06
    CPU time for scf_cycle      4.24 sec, wall time      4.39 sec
    CPU time for SCF      4.25 sec, wall time      4.39 sec
converged SCF energy = -31.93189364751
Using Python 3.x
Wavefunction successfully saved to QMCPACK HDF5 Format
Use: "convert4qmc -pyscf  scf.h5" to generate QMCPACK input files
