#INFO: **** input file is /home/abenali/Work/WorkShop/qmcpack_workshop_2021/qmc_workshop_2021/week4_molecules/Be2/01_qmc_SD/runs/Be2/cc-pvqz/SCAN/SCF/scf.py ****

#! /usr/bin/env python3

import numpy as np
from numpy import array

### generated pyscfimport text ###
from pyscf import df, scf, dft
### end generated pyscfimport text ###





### generated system text ###
from pyscf import gto as gto_loc
mol = gto_loc.Mole()
mol.verbose  = 5
mol.atom     = '''
               Be   0.00000000   0.00000000   0.00000000
               Be   4.63663771   0.00000000   0.00000000
               '''
mol.basis    = 'cc-pvqz'
mol.unit     = 'B'
mol.charge   = 0
mol.spin     = 0
mol.symmetry = True
mol.build()
### end generated system text ###




### generated calculation text ###
mf = scf.ROKS(mol).density_fit()
mf.max_cycle=200
mf.level_shift=0.0
mf.xc          = 'SCAN'
mf.tol         = '1e-10'
e_scf = mf.kernel()
### end generated calculation text ###



### generated conversion text ###
from PyscfToQmcpack import savetoqmcpack
savetoqmcpack(mol,mf,'scf')
### end generated conversion text ###

#INFO: ******************** input file end ********************


System: uname_result(system='Linux', node='abenali', release='5.11.0-38-generic', version='#42~20.04.1-Ubuntu SMP Tue Sep 28 20:41:07 UTC 2021', machine='x86_64', processor='x86_64')  Threads 1
Python 3.7.11 (default, Sep  9 2021, 02:06:38) 
[GCC 9.3.0]
numpy 1.20.3  scipy 1.6.2
Date: Thu Oct 21 22:45:20 2021
PySCF version 2.0.0a
PySCF path  /home/abenali/Work/src/pyscf
GIT HEAD (branch master) 3e8ba375fd4229f000289589fd02193633380853

[CONFIG] conf_file None
[INPUT] verbose = 5
[INPUT] max_memory = 4000 
[INPUT] num. atoms = 2
[INPUT] num. electrons = 8
[INPUT] charge = 0
[INPUT] spin (= nelec alpha-beta = 2S) = 0
[INPUT] symmetry True subgroup None
[INPUT] Mole.unit = B
[INPUT]  1 Be     0.000000000000   0.000000000000   0.000000000000 AA    0.000000000000   0.000000000000   0.000000000000 Bohr
[INPUT]  2 Be     2.453603011424   0.000000000000   0.000000000000 AA    4.636637710000   0.000000000000   0.000000000000 Bohr
[INPUT] ---------------- BASIS SET ---------------- 
[INPUT] l, kappa, [nprim/nctr], expnt,             c_1 c_2 ...
[INPUT] Be
[INPUT] 0    0    [9    /2   ]  14630             9.2e-05 -1.7e-05
                                2191              0.000713 -0.00013
                                498.2             0.003735 -0.000679
                                140.9             0.015468 -0.002857
                                45.86             0.052874 -0.009813
                                16.47             0.145694 -0.028609
                                6.319             0.302681 -0.06376
                                2.535             0.404936 -0.117231
                                1.035             0.222387 -0.121202
[INPUT] 0    0    [1    /1   ]  0.2528               1
[INPUT] 0    0    [1    /1   ]  0.1052               1
[INPUT] 0    0    [1    /1   ]  0.04261              1
[INPUT] 1    0    [3    /1   ]  14.03             0.004099
                                3.168             0.025626
                                0.9024            0.103768
[INPUT] 1    0    [1    /1   ]  0.3036               1
[INPUT] 1    0    [1    /1   ]  0.113                1
[INPUT] 1    0    [1    /1   ]  0.04286              1
[INPUT] 2    0    [1    /1   ]  1.072                1
[INPUT] 2    0    [1    /1   ]  0.441                1
[INPUT] 2    0    [1    /1   ]  0.1811               1
[INPUT] 3    0    [1    /1   ]  0.481                1
[INPUT] 3    0    [1    /1   ]  0.255                1
[INPUT] 4    0    [1    /1   ]  0.415                1

nuclear repulsion = 3.45077640323121
point group symmetry = Dooh
num. orbitals of irrep A1g = 15
num. orbitals of irrep E1gx = 10
num. orbitals of irrep E1gy = 10
num. orbitals of irrep A1u = 15
num. orbitals of irrep E1uy = 10
num. orbitals of irrep E1ux = 10
num. orbitals of irrep E2gx = 6
num. orbitals of irrep E2gy = 6
num. orbitals of irrep E3gx = 3
num. orbitals of irrep E3gy = 3
num. orbitals of irrep E2uy = 6
num. orbitals of irrep E2ux = 6
num. orbitals of irrep E3uy = 3
num. orbitals of irrep E3ux = 3
num. orbitals of irrep E4gx = 1
num. orbitals of irrep E4gy = 1
num. orbitals of irrep E4uy = 1
num. orbitals of irrep E4ux = 1
number of shells = 28
number of NR pGTOs = 136
number of NR cGTOs = 110
basis = cc-pvqz
ecp = {}
CPU time:         0.42


******** <class 'pyscf.df.df_jk.density_fit.<locals>.DFHF'> ********
method = DFHF-SymAdaptedROKS-SymAdaptedROHF-ROHF-RHF
initial guess = minao
damping factor = 0
level_shift factor = 0.0
DIIS = <class 'pyscf.scf.diis.CDIIS'>
diis_start_cycle = 1
diis_space = 8
SCF conv_tol = 1e-09
SCF conv_tol_grad = None
SCF max_cycles = 200
direct_scf = True
direct_scf_tol = 1e-13
chkfile to save SCF result = /home/abenali/Work/WorkShop/qmcpack_workshop_2021/qmc_workshop_2021/week4_molecules/Be2/01_qmc_SD/runs/Be2/cc-pvqz/SCAN/SCF/tmpvqvlvvn1
max_memory 4000 MB (current use 113 MB)
num. doubly occ = 4  num. singly occ = 0
XC library pyscf.dft.libxc version 5.1.5
    S. Lehtola, C. Steigemann, M. J. Oliveira, and M. A. Marques, SoftwareX 7, 1 (2018)
XC functionals = SCAN
    J. Sun, A. Ruzsinszky, and J. P. Perdew, Phys. Rev. Lett. 115, 036402 (2015)
    J. Sun, A. Ruzsinszky, and J. P. Perdew, Phys. Rev. Lett. 115, 036402 (2015)
radial grids: 
    Treutler-Ahlrichs [JCP 102, 346 (1995); DOI:10.1063/1.469408] (M4) radial grids
    
becke partition: Becke, JCP 88, 2547 (1988); DOI:10.1063/1.454033
pruning grids: <function nwchem_prune at 0x7f3d2285bd40>
grids dens level: 3
symmetrized grids: True
atomic radii adjust function: <function treutler_atomic_radii_adjust at 0x7f3d22864200>
small_rho_cutoff = 1e-07
Freeze 0 electrons in irreps []
    8 free electrons in irreps A1g E1gx E1gy A1u E1uy E1ux E2gx E2gy E3gx E3gy E2uy E2ux E3uy E3ux E4gx E4gy E4uy E4ux
Set gradient conv threshold to 3.16228e-05
atom Be rad-grids = 75, ang-grids = [ 50  50  50  50  50  50  50  50  50  50  50  50  50  50  50  50  50  50
  50  50  50  50  50  50  50  50  86  86  86  86  86  86  86  86  86  86
  86 266 266 266 266 266 266 266 266 302 302 302 302 302 302 302 302 302
 302 302 302 302 302 302 302 302 302 302 302 302 266 266 266 266 266 266
 266 266 266]
tot grids = 26220
Drop grids 790
    CPU time for setting up grids      0.07 sec, wall time      0.21 sec
nelec by numeric integration = [3.99999276 3.99999276]
    CPU time for vxc      0.85 sec, wall time      2.39 sec
Even tempered Gaussians are generated as DF auxbasis for  Be
  ETB auxbasis for Be  [[0, [698.12224, 1]], [0, [349.06112, 1]], [0, [174.53056, 1]], [0, [87.26528, 1]], [0, [43.63264, 1]], [0, [21.81632, 1]], [0, [10.90816, 1]], [0, [5.45408, 1]], [0, [2.72704, 1]], [0, [1.36352, 1]], [0, [0.68176, 1]], [0, [0.34088, 1]], [0, [0.17044, 1]], [0, [0.08522, 1]], [1, [87.5209055988248, 1]], [1, [43.7604527994124, 1]], [1, [21.8802263997062, 1]], [1, [10.9401131998531, 1]], [1, [5.47005659992655, 1]], [1, [2.735028299963275, 1]], [1, [1.3675141499816375, 1]], [1, [0.6837570749908187, 1]], [1, [0.34187853749540936, 1]], [1, [0.17093926874770468, 1]], [1, [0.08546963437385234, 1]], [2, [21.94432, 1]], [2, [10.97216, 1]], [2, [5.48608, 1]], [2, [2.74304, 1]], [2, [1.37152, 1]], [2, [0.68576, 1]], [2, [0.34288, 1]], [2, [0.17144, 1]], [2, [0.08572, 1]]]
num shells = 68, num cGTOs = 184
    CPU time for df-vj      0.10 sec, wall time      0.30 sec
E1 = -45.157402197680355  Ecoul = 17.91016394272344  Exc = -5.558489226998576
init E= -29.3549510787243
cond(S) = 8315.302278583578
    CPU time for initialize scf      1.05 sec, wall time      2.96 sec
HOMO (A1u) = -0.166183001035959  LUMO (E1ux) = -0.0973055089192068
double occ irrep_nelec = [2, 0, 0, 2, 0, 0, 0, 0, 0, 0, 0, 0, 0, 0, 0, 0, 0, 0]
single occ irrep_nelec = [0, 0, 0, 0, 0, 0, 0, 0, 0, 0, 0, 0, 0, 0, 0, 0, 0, 0]
  Roothaan mo_energy =
[-3.96056024 -0.27234497 -0.09353698  0.09318726  0.14195996  0.45430187
  0.59681021  0.62424819  1.08744442  1.63123537  2.09850687  2.28636632
  3.0433335   4.23292898  7.28489531 -0.01914861  0.18009434  0.53456521
  0.62036856  1.28672707  1.59596453  2.15636989  2.63239446  3.03350251
  4.31009468 -0.01914861  0.18009434  0.53456521  0.62036856  1.28672707
  1.59596453  2.15636989  2.63239446  3.03350251  4.31009468 -3.96051346
 -0.166183    0.08478308  0.15333885  0.23945926  0.4957003   0.66106944
  0.87723317  1.16665783  1.68671069  2.27445841  2.74098273  3.00417844
  4.64938752  6.9249905  -0.09730551  0.13386011  0.31327492  0.55777758
  0.8859175   1.41062979  1.9914851   2.20005632  2.69751287  4.15611496
 -0.09730551  0.13386011  0.31327492  0.55777758  0.8859175   1.41062979
  1.9914851   2.20005632  2.69751287  4.15611496  0.29990854  0.76750529
  1.37492683  1.90065388  2.43385015  4.11219179  0.29988875  0.76798574
  1.37471092  1.90033432  2.4334923   4.11218979  0.88991756  2.17695751
  2.4625163   0.88991756  2.17695751  2.4625163   0.40065597  1.04529312
  1.43830269  2.41834136  2.65086802  4.15945024  0.40064268  1.04578741
  1.43818008  2.4187903   2.65136742  4.1593297   0.79184893  1.91481591
  2.40745479  0.79184893  1.91481591  2.40745479  2.00970062  2.00957009
  2.05345432  2.05335914]
nelec by numeric integration = [4.0000001 4.0000001]
    CPU time for vxc      0.59 sec, wall time      1.21 sec
    CPU time for df-vj      0.08 sec, wall time      0.14 sec
E1 = -45.07050370507389  Ecoul = 17.841889485998816  Exc = -5.535131229444511
cycle= 1 E= -29.3129690452884  delta_E= 0.042  |g|= 0.0198  |ddm|= 0.559
    CPU time for cycle= 1      0.69 sec, wall time      1.37 sec
HOMO (A1u) = -0.168478293089737  LUMO (E1uy) = -0.0982313786071405
double occ irrep_nelec = [2, 0, 0, 2, 0, 0, 0, 0, 0, 0, 0, 0, 0, 0, 0, 0, 0, 0]
single occ irrep_nelec = [0, 0, 0, 0, 0, 0, 0, 0, 0, 0, 0, 0, 0, 0, 0, 0, 0, 0]
  Roothaan mo_energy =
[-3.97481707 -0.27297048 -0.09688145  0.08903706  0.12831875  0.44717891
  0.59263224  0.62844192  1.08530114  1.62348155  2.08282723  2.28196691
  3.03004415  4.21161308  7.2677589  -0.02196869  0.17030342  0.53446021
  0.62331986  1.29587954  1.6001141   2.14474272  2.6278387   3.03884492
  4.2926409  -0.02196869  0.17030342  0.53446021  0.62331986  1.29587954
  1.6001141   2.14474272  2.6278387   3.03884492  4.2926409  -3.97477255
 -0.16847829  0.07669796  0.1477013   0.22916332  0.48493854  0.66064098
  0.87641845  1.16218963  1.68766794  2.28396831  2.73471269  2.98504248
  4.61864267  6.90519028 -0.09823138  0.12388129  0.31350873  0.55897658
  0.88359404  1.41152698  1.9844294   2.19142938  2.69609078  4.13870652
 -0.09823138  0.12388129  0.31350873  0.55897658  0.88359404  1.41152698
  1.9844294   2.19142938  2.69609078  4.13870652  0.30403033  0.77302259
  1.38654581  1.90655074  2.43818216  4.09387026  0.30448202  0.77318236
  1.38617604  1.90592752  2.43738988  4.0934142   0.90236779  2.19902679
  2.47837378  0.90236779  2.19902679  2.47837378  0.40299213  1.05474346
  1.4501572   2.43372724  2.66363196  4.14082799  0.4030438   1.0542301
  1.45037675  2.43386797  2.66267934  4.14122468  0.80489741  1.93078541
  2.42493072  0.80489741  1.93078541  2.42493072  2.04152427  2.04122166
  2.08549882  2.08547429]
nelec by numeric integration = [4.0000001 4.0000001]
    CPU time for vxc      0.63 sec, wall time      0.97 sec
    CPU time for df-vj      0.08 sec, wall time      0.13 sec
E1 = -45.04083731507659  Ecoul = 17.807275191131165  Exc = -5.530361584396184
cycle= 2 E= -29.3131473051104  delta_E= -0.000178  |g|= 0.00387  |ddm|= 0.0845
    CPU time for cycle= 2      0.73 sec, wall time      1.13 sec
HOMO (A1u) = -0.170524211757207  LUMO (E1uy) = -0.10066224105749
double occ irrep_nelec = [2, 0, 0, 2, 0, 0, 0, 0, 0, 0, 0, 0, 0, 0, 0, 0, 0, 0]
single occ irrep_nelec = [0, 0, 0, 0, 0, 0, 0, 0, 0, 0, 0, 0, 0, 0, 0, 0, 0, 0]
  Roothaan mo_energy =
[-3.98044026 -0.27615779 -0.09927856  0.08744865  0.12325923  0.44456716
  0.58923733  0.62556605  1.08181073  1.62023548  2.07869755  2.27892803
  3.02674714  4.20961929  7.26219247 -0.02434075  0.1667061   0.53181692
  0.62098198  1.29361386  1.59781595  2.14133393  2.62424951  3.03629857
  4.28798666 -0.02434075  0.1667061   0.53181692  0.62098198  1.29361386
  1.59781595  2.14133393  2.62424951  3.03629857  4.28798666 -3.98039603
 -0.17052421  0.07219759  0.14463507  0.22388542  0.47917987  0.65803346
  0.87382811  1.15778544  1.68440735  2.28122589  2.73194803  2.98036859
  4.61615917  6.89951676 -0.10066224  0.12192681  0.31113745  0.5565086
  0.88082276  1.40889125  1.98063606  2.18810645  2.69353457  4.13427833
 -0.10066224  0.12192681  0.31113745  0.5565086   0.88082276  1.40889125
  1.98063606  2.18810645  2.69353457  4.13427833  0.30177129  0.77025777
  1.38412559  1.9035761   2.43608979  4.09274     0.30216951  0.77043686
  1.38382614  1.90297543  2.43535406  4.09220173  0.89998289  2.1968295
  2.4766643   0.89998289  2.1968295   2.4766643   0.40084972  1.05237291
  1.44778472  2.43115462  2.66145426  4.13960334  0.40090427  1.05192317
  1.44795269  2.43132211  2.66056085  4.14008791  0.8024662   1.92814378
  2.42340788  0.8024662   1.92814378  2.42340788  2.03969438  2.03943986
  2.08372304  2.08371788]
nelec by numeric integration = [4.0000001 4.0000001]
    CPU time for vxc      0.53 sec, wall time      0.84 sec
    CPU time for df-vj      0.08 sec, wall time      0.16 sec
E1 = -45.05126271586606  Ecoul = 17.81934170680087  Exc = -5.532008290735135
cycle= 3 E= -29.3131528965691  delta_E= -5.59e-06  |g|= 0.00245  |ddm|= 0.02
    CPU time for cycle= 3      0.63 sec, wall time      1.04 sec
HOMO (A1u) = -0.170370467713242  LUMO (E1ux) = -0.10020065459998
double occ irrep_nelec = [2, 0, 0, 2, 0, 0, 0, 0, 0, 0, 0, 0, 0, 0, 0, 0, 0, 0]
single occ irrep_nelec = [0, 0, 0, 0, 0, 0, 0, 0, 0, 0, 0, 0, 0, 0, 0, 0, 0, 0]
  Roothaan mo_energy =
[-3.97959705 -0.27540803 -0.09902867  0.08765625  0.12285289  0.44478938
  0.5892145   0.62608706  1.08240501  1.6207343   2.07943221  2.27946924
  3.02736032  4.21057315  7.26304448 -0.02408442  0.16661506  0.53201707
  0.62132979  1.29406786  1.59820897  2.14196947  2.62500775  3.0366825
  4.28870928 -0.02408442  0.16661506  0.53201707  0.62132979  1.29406786
  1.59820897  2.14196947  2.62500775  3.0366825   4.28870928 -3.97955284
 -0.17037047  0.07198322  0.14467083  0.22369835  0.47894176  0.65832958
  0.87397821  1.15802277  1.68475254  2.28182381  2.73258839  2.98100831
  4.61717763  6.90044573 -0.10020065  0.12208871  0.3114765   0.55691506
  0.88126906  1.40938939  1.98129923  2.18879533  2.69400122  4.13498545
 -0.10020065  0.12208871  0.3114765   0.55691506  0.88126906  1.40938939
  1.98129923  2.18879533  2.69400122  4.13498545  0.3022115   0.77063367
  1.38464068  1.90410881  2.4365771   4.0933755   0.30259396  0.77081449
  1.38435825  1.90352078  2.43586505  4.09283838  0.90034781  2.19738128
  2.4771734   0.90034781  2.19738128  2.4771734   0.40113875  1.0527353
  1.44826263  2.43183941  2.66184028  4.14023458  0.40119357  1.05231851
  1.44841996  2.43198391  2.66096394  4.14071993  0.80289391  1.92861723
  2.42399395  0.80289391  1.92861723  2.42399395  2.04024308  2.03998951
  2.08426489  2.08426359]
nelec by numeric integration = [4.0000001 4.0000001]
    CPU time for vxc      0.53 sec, wall time      0.83 sec
    CPU time for df-vj      0.08 sec, wall time      0.11 sec
E1 = -45.04680084705996  Ecoul = 17.814272617869346  Exc = -5.531406097181771
cycle= 4 E= -29.3131579231412  delta_E= -5.03e-06  |g|= 0.000227  |ddm|= 0.00704
    CPU time for cycle= 4      0.63 sec, wall time      0.97 sec
HOMO (A1u) = -0.170304432589003  LUMO (E1uy) = -0.100133515631017
double occ irrep_nelec = [2, 0, 0, 2, 0, 0, 0, 0, 0, 0, 0, 0, 0, 0, 0, 0, 0, 0]
single occ irrep_nelec = [0, 0, 0, 0, 0, 0, 0, 0, 0, 0, 0, 0, 0, 0, 0, 0, 0, 0]
  Roothaan mo_energy =
[-3.97932277 -0.27533398 -0.09896877  0.08770986  0.12264687  0.44480314
  0.58923353  0.62617589  1.08251154  1.62084091  2.079538    2.27953704
  3.02742765  4.21054162  7.26329293 -0.02402453  0.16654898  0.53206808
  0.6213826   1.29413231  1.59828463  2.14208982  2.62509802  3.03676714
  4.28886859 -0.02402453  0.16654898  0.53206808  0.6213826   1.29413231
  1.59828463  2.14208982  2.62509802  3.03676714  4.28886859 -3.97927853
 -0.17030443  0.07184044  0.14469931  0.22355229  0.47887044  0.65839299
  0.87404375  1.15807008  1.68486289  2.28191192  2.7326084   2.98114322
  4.61715516  6.90069326 -0.10013352  0.12209715  0.31154571  0.55696633
  0.881361    1.40945116  1.98140026  2.18891323  2.69407798  4.13514481
 -0.10013352  0.12209715  0.31154571  0.55696633  0.881361    1.40945116
  1.98140026  2.18891323  2.69407798  4.13514481  0.3022864   0.77071911
  1.38470477  1.9041832   2.43660309  4.09335338  0.30266711  0.77089897
  1.3844206   1.90359614  2.43589336  4.09282557  0.9004409   2.19744366
  2.47720139  0.9004409   2.19744366  2.47720139  0.40121462  1.05282718
  1.44833396  2.43188652  2.66190278  4.14022414  0.40126984  1.05241127
  1.44849332  2.43203034  2.6610211   4.14070011  0.80298438  1.92868882
  2.42400779  0.80298438  1.92868882  2.42400779  2.04028083  2.04002588
  2.08430055  2.08430042]
nelec by numeric integration = [4.0000001 4.0000001]
    CPU time for vxc      0.48 sec, wall time      0.64 sec
    CPU time for df-vj      0.07 sec, wall time      0.09 sec
E1 = -45.04645243673205  Ecoul = 17.81383198909409  Exc = -5.531313913458259
cycle= 5 E= -29.313157957865  delta_E= -3.47e-08  |g|= 5.08e-05  |ddm|= 0.0034
    CPU time for cycle= 5      0.56 sec, wall time      0.74 sec
HOMO (A1u) = -0.170322840153716  LUMO (E1ux) = -0.100149198910924
double occ irrep_nelec = [2, 0, 0, 2, 0, 0, 0, 0, 0, 0, 0, 0, 0, 0, 0, 0, 0, 0]
single occ irrep_nelec = [0, 0, 0, 0, 0, 0, 0, 0, 0, 0, 0, 0, 0, 0, 0, 0, 0, 0]
  Roothaan mo_energy =
[-3.97936953 -0.27535285 -0.09898961  0.08769997  0.12254946  0.44477443
  0.58919778  0.62615994  1.08249295  1.62082938  2.07951312  2.27951712
  3.02741557  4.21052629  7.26325332 -0.02404226  0.1665015   0.53204792
  0.62136315  1.29411973  1.59827392  2.14206085  2.62507957  3.03675509
  4.28884245 -0.02404226  0.1665015   0.53204792  0.62136315  1.29411973
  1.59827392  2.14206085  2.62507957  3.03675509  4.28884245 -3.9793253
 -0.17032284  0.07175817  0.14466852  0.22346815  0.47879959  0.6583769
  0.87402514  1.15803667  1.68484394  2.28190089  2.73259449  2.98111636
  4.6171366   6.90065131 -0.1001492   0.12207833  0.31153264  0.55694712
  0.88134964  1.40943682  1.98138019  2.18888809  2.69406571  4.13511874
 -0.1001492   0.12207833  0.31153264  0.55694712  0.88134964  1.40943682
  1.98138019  2.18888809  2.69406571  4.13511874  0.30227533  0.77070706
  1.38468984  1.90416934  2.4365894   4.09333116  0.30265589  0.77088683
  1.38440577  1.90358244  2.4358795   4.09280315  0.90043357  2.19743171
  2.47718834  0.90043357  2.19743171  2.47718834  0.40120454  1.05281825
  1.44832004  2.43187112  2.66189266  4.14020193  0.40125975  1.0524019
  1.44847932  2.43201529  2.66101074  4.14067812  0.80297632  1.92867441
  2.42399507  0.80297632  1.92867441  2.42399507  2.04027213  2.04001747
  2.08429214  2.08429223]
nelec by numeric integration = [4.0000001 4.0000001]
    CPU time for vxc      0.54 sec, wall time      0.73 sec
    CPU time for df-vj      0.08 sec, wall time      0.12 sec
E1 = -45.04647874136792  Ecoul = 17.813867841091607  Exc = -5.531323463258969
cycle= 6 E= -29.3131579603041  delta_E= -2.44e-09  |g|= 8.14e-06  |ddm|= 0.00114
    CPU time for cycle= 6      0.64 sec, wall time      0.86 sec
HOMO (A1u) = -0.170323720450911  LUMO (E1uy) = -0.10014982205867
double occ irrep_nelec = [2, 0, 0, 2, 0, 0, 0, 0, 0, 0, 0, 0, 0, 0, 0, 0, 0, 0]
single occ irrep_nelec = [0, 0, 0, 0, 0, 0, 0, 0, 0, 0, 0, 0, 0, 0, 0, 0, 0, 0]
  Roothaan mo_energy =
[-3.97936813 -0.27535371 -0.09899086  0.0877004   0.12253271  0.44477082
  0.5891946   0.62615946  1.08249271  1.62082921  2.07951261  2.27951669
  3.02741441  4.2105258   7.2632545  -0.02404301  0.16649653  0.53204726
  0.62136211  1.29411975  1.59827413  2.14206089  2.62507925  3.03675556
  4.2888423  -0.02404301  0.16649653  0.53204726  0.62136211  1.29411975
  1.59827413  2.14206089  2.62507925  3.03675556  4.2888423  -3.9793239
 -0.17032372  0.07174421  0.14466576  0.22345441  0.47878906  0.65837771
  0.8740235   1.15803342  1.68484384  2.2819006   2.73259337  2.98111568
  4.61713617  6.90065247 -0.10014982  0.12207762  0.31153249  0.55694689
  0.88134979  1.4094364   1.98138002  2.18888831  2.69406523  4.13511882
 -0.10014982  0.12207762  0.31153249  0.55694689  0.88134979  1.4094364
  1.98138002  2.18888831  2.69406523  4.13511882  0.30227522  0.77070722
  1.38468971  1.90416901  2.43658893  4.09333104  0.30265584  0.77088701
  1.38440559  1.90358208  2.43587906  4.09280301  0.90043446  2.19743147
  2.47718858  0.90043446  2.19743147  2.47718858  0.40120487  1.05281871
  1.44832001  2.4318706   2.66189243  4.14020182  0.40126007  1.05240224
  1.44847933  2.43201475  2.66101049  4.14067803  0.80297697  1.92867406
  2.42399514  0.80297697  1.92867406  2.42399514  2.04027251  2.04001785
  2.08429255  2.08429267]
nelec by numeric integration = [4.0000001 4.0000001]
    CPU time for vxc      0.56 sec, wall time      0.94 sec
    CPU time for df-vj      0.08 sec, wall time      0.15 sec
E1 = -45.046473015024965  Ecoul = 17.813860513053616  Exc = -5.531321861655438
cycle= 7 E= -29.3131579603956  delta_E= -9.15e-11  |g|= 1.32e-06  |ddm|= 0.000266
    CPU time for cycle= 7      0.66 sec, wall time      1.11 sec
HOMO (A1u) = -0.170323967981627  LUMO (E1uy) = -0.100150021390249
double occ irrep_nelec = [2, 0, 0, 2, 0, 0, 0, 0, 0, 0, 0, 0, 0, 0, 0, 0, 0, 0]
single occ irrep_nelec = [0, 0, 0, 0, 0, 0, 0, 0, 0, 0, 0, 0, 0, 0, 0, 0, 0, 0]
  Roothaan mo_energy =
[-3.97936871 -0.27535397 -0.09899117  0.08770047  0.12253014  0.44477017
  0.58919401  0.62615922  1.08249247  1.62082903  2.07951228  2.27951643
  3.02741411  4.21052561  7.26325402 -0.02404321  0.16649583  0.53204707
  0.6213618   1.29411962  1.59827408  2.1420605   2.62507902  3.03675547
  4.28884194 -0.02404321  0.16649583  0.53204707  0.6213618   1.29411962
  1.59827408  2.1420605   2.62507902  3.03675547  4.28884194 -3.97932448
 -0.17032397  0.07174202  0.14466526  0.22345227  0.47878732  0.65837777
  0.87402312  1.15803278  1.6848436   2.28190039  2.73259315  2.98111531
  4.61713597  6.90065195 -0.10015002  0.12207757  0.31153237  0.55694675
  0.88134967  1.40943626  1.98137979  2.18888798  2.69406499  4.13511846
 -0.10015002  0.12207757  0.31153237  0.55694675  0.88134967  1.40943626
  1.98137979  2.18888798  2.69406499  4.13511846  0.30227507  0.77070713
  1.38468953  1.90416883  2.4365888   4.09333074  0.30265571  0.77088693
  1.3844054   1.9035819   2.43587891  4.09280269  0.90043444  2.19743125
  2.47718841  0.90043444  2.19743125  2.47718841  0.4012048   1.05281862
  1.44831983  2.43187039  2.66189229  4.1402015   0.40126001  1.05240213
  1.44847916  2.43201454  2.66101035  4.14067773  0.80297691  1.92867385
  2.42399495  0.80297691  1.92867385  2.42399495  2.04027235  2.0400177
  2.08429241  2.08429252]
nelec by numeric integration = [4.0000001 4.0000001]
    CPU time for vxc      0.54 sec, wall time      0.80 sec
    CPU time for df-vj      0.09 sec, wall time      0.10 sec
E1 = -45.04647292554059  Ecoul = 17.813860451761773  Exc = -5.531321889850468
Extra cycle  E= -29.3131579603981  delta_E= -2.5e-12  |g|= 3.34e-07  |ddm|= 4.3e-05
    CPU time for scf_cycle      6.21 sec, wall time     11.11 sec
    CPU time for SCF      6.21 sec, wall time     11.12 sec
converged SCF energy = -29.3131579603981
Using Python 3.x
Wavefunction successfully saved to QMCPACK HDF5 Format
Use: "convert4qmc -pyscf  scf.h5" to generate QMCPACK input files
