#INFO: **** input file is /home/abenali/Work/WorkShop/qmcpack_workshop_2021/qmc_workshop_2021/week4_molecules/03_qmc_ccECP/runs/O2/Dist_2.6/SCF/scf.py ****

#! /usr/bin/env python3

import numpy as np
from numpy import array

### generated pyscfimport text ###
from pyscf import df, scf, dft
### end generated pyscfimport text ###





### generated system text ###
from pyscf import gto as gto_loc
mol = gto_loc.Mole()
mol.verbose  = 5
mol.atom     = '''
               O    0.00000000   0.00000000   0.00000000
               O    0.00000000   0.00000000   2.60000000
               '''
mol.basis    = 'ccecp-ccpvtz'
mol.unit     = 'A'
mol.ecp      = 'ccecp'
mol.charge   = 0
mol.spin     = 2
mol.symmetry = False
mol.build()
### end generated system text ###




### generated calculation text ###
mf = scf.ROKS(mol).density_fit()
mf.max_cycle=200
mf.level_shift=0.0
mf.xc          = 'SCAN'
mf.tol         = '1e-10'
e_scf = mf.kernel()
### end generated calculation text ###



### generated conversion text ###
from PyscfToQmcpack import savetoqmcpack
savetoqmcpack(mol,mf,'scf')
### end generated conversion text ###

#INFO: ******************** input file end ********************


System: uname_result(system='Linux', node='abenali', release='5.11.0-38-generic', version='#42~20.04.1-Ubuntu SMP Tue Sep 28 20:41:07 UTC 2021', machine='x86_64', processor='x86_64')  Threads 1
Python 3.7.11 (default, Sep  9 2021, 02:06:38) 
[GCC 9.3.0]
numpy 1.20.3  scipy 1.6.2
Date: Mon Oct 25 21:21:03 2021
PySCF version 2.0.0a
PySCF path  /home/abenali/Work/src/pyscf
GIT HEAD (branch master) 3e8ba375fd4229f000289589fd02193633380853

[CONFIG] conf_file None
[INPUT] verbose = 5
[INPUT] max_memory = 4000 
[INPUT] num. atoms = 2
[INPUT] num. electrons = 12
[INPUT] charge = 0
[INPUT] spin (= nelec alpha-beta = 2S) = 2
[INPUT] symmetry False subgroup None
[INPUT] Mole.unit = A
[INPUT]  1 O      0.000000000000   0.000000000000   0.000000000000 AA    0.000000000000   0.000000000000   0.000000000000 Bohr
[INPUT]  2 O      0.000000000000   0.000000000000   2.600000000000 AA    0.000000000000   0.000000000000   4.913287923869 Bohr
[INPUT] ---------------- BASIS SET ---------------- 
[INPUT] l, kappa, [nprim/nctr], expnt,             c_1 c_2 ...
[INPUT] O
[INPUT] 0    0    [9    /1   ]  54.775216         -0.0012444
                                25.616801         0.010733
                                11.980245         0.0018889
                                6.992317          -0.1742537
                                2.620277          0.0017622
                                1.225429          0.3161846
                                0.577797          0.4512023
                                0.268022          0.3121534
                                0.125346          0.0511167
[INPUT] 0    0    [1    /1   ]  1.686633             1
[INPUT] 0    0    [1    /1   ]  0.237997             1
[INPUT] 1    0    [9    /1   ]  22.217266         0.0104866
                                10.74755          0.0366435
                                5.315785          0.0803674
                                2.660761          0.162701
                                1.331816          0.2377791
                                0.678626          0.2811422
                                0.333673          0.2643189
                                0.167017          0.1466014
                                0.083598          0.0458145
[INPUT] 1    0    [1    /1   ]  0.600621             1
[INPUT] 1    0    [1    /1   ]  0.184696             1
[INPUT] 2    0    [1    /1   ]  2.404278             1
[INPUT] 2    0    [1    /1   ]  0.66934              1
[INPUT] 3    0    [1    /1   ]  1.423104             1

nuclear repulsion = 7.32706907427692
number of shells = 18
number of NR pGTOs = 122
number of NR cGTOs = 58
basis = ccecp-ccpvtz
ecp = ccecp
CPU time:         0.27


******** <class 'pyscf.df.df_jk.density_fit.<locals>.DFHF'> ********
method = DFHF-ROKS-ROHF-RHF
initial guess = minao
damping factor = 0
level_shift factor = 0.0
DIIS = <class 'pyscf.scf.diis.CDIIS'>
diis_start_cycle = 1
diis_space = 8
SCF conv_tol = 1e-09
SCF conv_tol_grad = None
SCF max_cycles = 200
direct_scf = True
direct_scf_tol = 1e-13
chkfile to save SCF result = /home/abenali/Work/WorkShop/qmcpack_workshop_2021/qmc_workshop_2021/week4_molecules/03_qmc_ccECP/runs/O2/Dist_2.6/SCF/tmparhfrvix
max_memory 4000 MB (current use 107 MB)
num. doubly occ = 5  num. singly occ = 2
XC library pyscf.dft.libxc version 5.1.5
    S. Lehtola, C. Steigemann, M. J. Oliveira, and M. A. Marques, SoftwareX 7, 1 (2018)
XC functionals = SCAN
    J. Sun, A. Ruzsinszky, and J. P. Perdew, Phys. Rev. Lett. 115, 036402 (2015)
    J. Sun, A. Ruzsinszky, and J. P. Perdew, Phys. Rev. Lett. 115, 036402 (2015)
radial grids: 
    Treutler-Ahlrichs [JCP 102, 346 (1995); DOI:10.1063/1.469408] (M4) radial grids
    
becke partition: Becke, JCP 88, 2547 (1988); DOI:10.1063/1.454033
pruning grids: <function nwchem_prune at 0x7f7912cecdd0>
grids dens level: 3
symmetrized grids: False
atomic radii adjust function: <function treutler_atomic_radii_adjust at 0x7f7912cf5290>
small_rho_cutoff = 1e-07
Set gradient conv threshold to 3.16228e-05
atom O rad-grids = 75, ang-grids = [ 50  50  50  50  50  50  50  50  50  50  50  50  50  50  50  50  50  50
  50  50  50  50  86  86  86  86  86  86  86  86  86 266 266 266 266 266
 266 266 302 302 302 302 302 302 302 302 302 302 302 302 302 302 302 302
 302 302 302 266 266 266 266 266 266 266 266 266 266 266 266 266 266 266
 266 266 266]
tot grids = 28524
Drop grids 1972
    CPU time for setting up grids      0.03 sec, wall time      0.03 sec
nelec by numeric integration = [5.99999751 5.99999751]
    CPU time for vxc      0.36 sec, wall time      0.36 sec
Even tempered Gaussians are generated as DF auxbasis for  O
  ETB auxbasis for O  [[0, [64.177152, 1]], [0, [32.088576, 1]], [0, [16.044288, 1]], [0, [8.022144, 1]], [0, [4.011072, 1]], [0, [2.005536, 1]], [0, [1.002768, 1]], [0, [0.501384, 1]], [0, [0.250692, 1]], [1, [52.41108427692326, 1]], [1, [26.20554213846163, 1]], [1, [13.102771069230815, 1]], [1, [6.551385534615408, 1]], [1, [3.275692767307704, 1]], [1, [1.637846383653852, 1]], [1, [0.818923191826926, 1]], [1, [0.409461595913463, 1]], [1, [0.2047307979567315, 1]], [2, [42.802176, 1]], [2, [21.401088, 1]], [2, [10.700544, 1]], [2, [5.350272, 1]], [2, [2.675136, 1]], [2, [1.337568, 1]], [2, [0.668784, 1]], [2, [0.334392, 1]], [2, [0.167196, 1]], [3, [7.569571782318998, 1]], [3, [3.784785891159499, 1]], [3, [1.8923929455797495, 1]], [3, [0.9461964727898747, 1]], [3, [0.47309823639493737, 1]], [4, [5.35472, 1]], [4, [2.67736, 1]], [4, [1.33868, 1]]]
num shells = 70, num cGTOs = 286
    CPU time for df-vj      0.05 sec, wall time      0.05 sec
E1 = -66.93611738323452  Ecoul = 34.462686323490864  Exc = -6.387277560756617
init E= -31.5336395462233
cond(S) = 94.88367530907972
    CPU time for initialize scf      0.49 sec, wall time      0.56 sec
  HOMO = -0.352193465086576  LUMO = -0.332882101692708
                  Roothaan           | alpha              | beta
  Highest 2-occ = -0.362098899930908 | -0.362098899930908 | -0.362098899930908
  Lowest 0-occ =  -0.332882101692708 | -0.332882101692707 | -0.332882101692707
  1-occ =         -0.352193465086579 | -0.352193465086577 | -0.352193465086577
  1-occ =         -0.352193465086576 | -0.352193465086578 | -0.352193465086578
  Roothaan mo_energy =
[-0.96999195 -0.95928742 -0.37882665 -0.3620989  -0.3620989  -0.35219347
 -0.35219347 -0.3328821   0.41915394  0.41915394  0.45334987  0.49972414
  0.51430295  0.51430295  0.7430821   0.99220146  1.41782161  1.45281229
  1.45281229  1.46831131  1.46838915  1.47130674  1.47138346  1.49311575
  1.49311575  1.6469272   2.85067317  2.85067317  2.91609505  2.92688596
  2.92688596  2.98372181  5.14650826  5.14705604  5.14705604  5.14761669
  5.14766808  5.14784465  5.14789633  5.14795192  5.14795192  5.1482174
  5.1482174   5.14823507  5.14823507  5.15415433  6.35204602  6.38347636
  6.38347636  6.39468645  6.39475318  6.39679018  6.39685676  6.41373565
  6.41373565  6.50483501 14.72320976 15.46667455]
nelec by numeric integration = [6.99999654 4.9999973 ]
    CPU time for vxc      0.26 sec, wall time      0.26 sec
    CPU time for df-vj      0.05 sec, wall time      0.05 sec
E1 = -67.13304386191373  Ecoul = 34.66494662611788  Exc = -6.491135959613679
cycle= 1 E= -31.6321641211326  delta_E= -0.0985  |g|= 0.0721  |ddm|= 1.72
    CPU time for cycle= 1      0.31 sec, wall time      0.31 sec
  HOMO = -0.331078513507488  LUMO = -0.315263437389347
                  Roothaan           | alpha              | beta
  Highest 2-occ =  -0.34184008272052 | -0.374143067273942 | -0.293593688415734
  Lowest 0-occ =  -0.315263437389347 | -0.325503815211881 | -0.305023059566814
  1-occ =         -0.331078513507489 | -0.381408704505054 | -0.279736781419774
  1-occ =         -0.331078513507488 | -0.381408704505054 | -0.279736781419774
  Roothaan mo_energy =
[-0.94958803 -0.93774858 -0.36571912 -0.34184008 -0.34184008 -0.33107851
 -0.33107851 -0.31526344  0.4281805   0.4281805   0.45131485  0.50524613
  0.52471271  0.52471271  0.75258378  1.00476707  1.42377708  1.4557854
  1.4557854   1.48363261  1.48374208  1.48670022  1.48680904  1.49731603
  1.49731603  1.65690603  2.87081407  2.87081407  2.93842477  2.94689494
  2.94689494  3.00862162  5.13916858  5.13916858  5.14032242  5.14032242
  5.15129199  5.15415083  5.15420237  5.1544611   5.15451282  5.15929617
  5.16265627  5.16265627  5.16265796  5.16265796  6.365154    6.39527021
  6.39527021  6.41735218  6.41804619  6.41947299  6.42016725  6.42588415
  6.42588415  6.51940497 14.75280608 15.49629357]
nelec by numeric integration = [6.99999627 4.99999715]
    CPU time for vxc      0.27 sec, wall time      0.27 sec
    CPU time for df-vj      0.05 sec, wall time      0.05 sec
E1 = -67.0135862361383  Ecoul = 34.50833997183324  Exc = -6.455283946974124
cycle= 2 E= -31.6334611370023  delta_E= -0.0013  |g|= 0.0299  |ddm|= 0.128
    CPU time for cycle= 2      0.32 sec, wall time      0.32 sec
  HOMO = -0.34085892404891  LUMO = -0.324357143181357
                  Roothaan           | alpha              | beta
  Highest 2-occ = -0.351561571507115 | -0.384472170025859 | -0.304570369316875
  Lowest 0-occ =  -0.324357143181357 | -0.336565516876682 | -0.316207368281664
  1-occ =         -0.340858924048913 | -0.394667895316796 | -0.290940120781072
  1-occ =          -0.34085892404891 | -0.394667895316795 | -0.290940120781071
  Roothaan mo_energy =
[-0.95929601 -0.94761147 -0.37427818 -0.35156157 -0.35156157 -0.34085892
 -0.34085892 -0.32435714  0.4233796   0.4233796   0.44603856  0.50060129
  0.51988935  0.51988935  0.74595195  0.99909969  1.41840181  1.4497797
  1.4497797   1.47780866  1.47791905  1.4808789   1.48098866  1.49142757
  1.49142757  1.65178327  2.86006859  2.86006859  2.92855536  2.9360064
  2.9360064   2.99901507  5.13061879  5.13061879  5.13178704  5.13178704
  5.1434427   5.14618403  5.14623602  5.14648555  5.14653772  5.15149412
  5.15486263  5.15486263  5.15486433  5.15486433  6.35288429  6.38306294
  6.38306294  6.40500467  6.40566071  6.40712991  6.40778618  6.41373372
  6.41373372  6.50748174 14.73689907 15.48028055]
nelec by numeric integration = [6.99999617 4.9999971 ]
    CPU time for vxc      0.28 sec, wall time      0.28 sec
    CPU time for df-vj      0.05 sec, wall time      0.05 sec
E1 = -67.10294067013646  Ecoul = 34.62411988301486  Exc = -6.4818452385662395
cycle= 3 E= -31.6335969514109  delta_E= -0.000136  |g|= 0.0168  |ddm|= 0.0536
    CPU time for cycle= 3      0.33 sec, wall time      0.33 sec
  HOMO = -0.337073376145514  LUMO = -0.320581555232047
                  Roothaan           | alpha              | beta
  Highest 2-occ = -0.348187211566053 | -0.376125066245484 | -0.295888674161874
  Lowest 0-occ =  -0.320581555232047 | -0.327493986321716 | -0.307051122006573
  1-occ =         -0.337073376145517 | -0.385613683331171 |  -0.28184791550929
  1-occ =         -0.337073376145514 |  -0.38561368333117 | -0.281847915509289
  Roothaan mo_energy =
[-0.95572927 -0.94397151 -0.37084181 -0.34818721 -0.34818721 -0.33707338
 -0.33707338 -0.32058156  0.42502865  0.42502865  0.4478898   0.50226997
  0.52130114  0.52130114  0.74827679  1.00139725  1.42049201  1.45181773
  1.45181773  1.47990456  1.48001249  1.48297698  1.48308427  1.49349559
  1.49349559  1.65406357  2.86375216  2.86375216  2.93258344  2.93960899
  2.93960899  3.0029844   5.13329139  5.13329139  5.13446051  5.13446051
  5.14629245  5.1489771   5.14902901  5.14927494  5.14932701  5.15434073
  5.15773441  5.15773441  5.1577361   5.1577361   6.35726759  6.38746146
  6.38746146  6.40949147  6.41006312  6.41161647  6.41218834  6.41812799
  6.41812799  6.5118567  14.74277638 15.48619257]
nelec by numeric integration = [6.99999619 4.99999711]
    CPU time for vxc      0.27 sec, wall time      0.27 sec
    CPU time for df-vj      0.05 sec, wall time      0.05 sec
E1 = -67.07138975018492  Ecoul = 34.583221077195844  Exc = -6.472554442354948
cycle= 4 E= -31.6336540410671  delta_E= -5.71e-05  |g|= 0.000433  |ddm|= 0.0182
    CPU time for cycle= 4      0.32 sec, wall time      0.32 sec
  HOMO = -0.337018779723061  LUMO = -0.320507349797832
                  Roothaan           | alpha              | beta
  Highest 2-occ = -0.348171152136466 | -0.379032216971514 | -0.298964295094157
  Lowest 0-occ =  -0.320507349797832 | -0.330640551404011 | -0.310251059954675
  1-occ =         -0.337018779723063 | -0.388835037026877 | -0.285069070835518
  1-occ =         -0.337018779723061 | -0.388835037026877 | -0.285069070835519
  Roothaan mo_energy =
[-0.95569331 -0.94392698 -0.37079564 -0.34817115 -0.34817115 -0.33701878
 -0.33701878 -0.32050735  0.42503375  0.42503375  0.44782667  0.50229349
  0.52130023  0.52130023  0.74828566  1.00142317  1.42049664  1.45179686
  1.45179686  1.47991664  1.48002399  1.48298964  1.48309634  1.49348248
  1.49348248  1.65410371  2.86375357  2.86375357  2.93267115  2.93959922
  2.93959922  3.00305704  5.13321239  5.13321239  5.1343819   5.1343819
  5.14629543  5.14896528  5.14901716  5.14926315  5.14931519  5.15434261
  5.15774456  5.15774456  5.15774631  5.15774631  6.35722935  6.38748721
  6.38748721  6.40952775  6.41008577  6.41165296  6.4122112   6.41815699
  6.41815699  6.5118315  14.74285135 15.48626775]
nelec by numeric integration = [6.99999619 4.99999711]
    CPU time for vxc      0.27 sec, wall time      0.27 sec
    CPU time for df-vj      0.05 sec, wall time      0.05 sec
E1 = -67.07103090055323  Ecoul = 34.582736502529976  Exc = -6.472428762508966
cycle= 5 E= -31.6336540862553  delta_E= -4.52e-08  |g|= 0.00015  |ddm|= 0.000614
    CPU time for cycle= 5      0.32 sec, wall time      0.32 sec
  HOMO = -0.337000903763314  LUMO = -0.320485996462264
                  Roothaan           | alpha              | beta
  Highest 2-occ = -0.348155038378264 | -0.379059289633129 | -0.298999312822801
  Lowest 0-occ =  -0.320485996462264 | -0.330668362383746 | -0.310282562112067
  1-occ =         -0.337000903763387 | -0.388876925327394 |  -0.28510660365136
  1-occ =         -0.337000903763314 | -0.388876925327398 | -0.285106603651234
  Roothaan mo_energy =
[-0.9556745  -0.94390893 -0.37077718 -0.34815504 -0.34815504 -0.3370009
 -0.3370009  -0.320486    0.42504461  0.42504461  0.44784314  0.50229036
  0.52130816  0.52130816  0.74829044  1.00144269  1.4205084   1.45180636
  1.45180636  1.47992823  1.48003553  1.48300134  1.48310799  1.49349311
  1.49349311  1.65412112  2.86376938  2.86376938  2.93268768  2.93961363
  2.93961363  3.00307782  5.13321846  5.13321846  5.1343887   5.1343887
  5.14630954  5.14897335  5.14903251  5.14927125  5.14933054  5.15435785
  5.15774449  5.15774449  5.15777237  5.15777237  6.35724397  6.38750563
  6.38750563  6.40954762  6.41010457  6.41167311  6.41223027  6.41817539
  6.41817539  6.51184577 14.74287779 15.48629624]
nelec by numeric integration = [6.99999619 4.99999711]
    CPU time for vxc      0.26 sec, wall time      0.26 sec
    CPU time for df-vj      0.05 sec, wall time      0.05 sec
E1 = -67.0708754855709  Ecoul = 34.582551311560344  Exc = -6.472394730709256
cycle= 6 E= -31.6336498304429  delta_E= 4.26e-06  |g|= 0.00433  |ddm|= 0.00276
    CPU time for cycle= 6      0.31 sec, wall time      0.31 sec
  HOMO = -0.33700016096576  LUMO = -0.320485070010471
                  Roothaan           | alpha              | beta
  Highest 2-occ = -0.348154323089098 | -0.379073009817347 | -0.299013710909132
  Lowest 0-occ =  -0.320485070010471 | -0.330682938134516 | -0.310297851144537
  1-occ =         -0.337000160965761 |  -0.38889201390677 | -0.285121272191489
  1-occ =          -0.33700016096576 | -0.388892013909835 | -0.285121272193363
  Roothaan mo_energy =
[-0.95567366 -0.94390817 -0.37077637 -0.34815432 -0.34815432 -0.33700016
 -0.33700016 -0.32048507  0.42504509  0.42504509  0.44784386  0.5022902
  0.52130852  0.52130852  0.74829064  1.00144355  1.42050891  1.45180677
  1.45180677  1.47992878  1.48003608  1.4830018   1.48310845  1.49349357
  1.49349357  1.65412189  2.86377006  2.86377006  2.93268838  2.93961425
  2.93961425  3.00307871  5.13321888  5.13321888  5.13438877  5.13438877
  5.14631018  5.14897748  5.14902937  5.14927537  5.14932742  5.15435848
  5.15775813  5.15775813  5.15775984  5.15775984  6.35724458  6.38750642
  6.38750642  6.40954861  6.41010552  6.41167383  6.41223094  6.41817616
  6.41817616  6.51184635 14.74287892 15.48629747]
nelec by numeric integration = [6.99999619 4.99999711]
    CPU time for vxc      0.28 sec, wall time      0.28 sec
    CPU time for df-vj      0.05 sec, wall time      0.05 sec
E1 = -67.0708684571502  Ecoul = 34.5825376111544  Exc = -6.472392319739548
cycle= 7 E= -31.6336540914584  delta_E= -4.26e-06  |g|= 2.34e-05  |ddm|= 0.00272
    CPU time for cycle= 7      0.34 sec, wall time      0.34 sec
  HOMO = -0.337004311751636  LUMO = -0.320487864879095
                  Roothaan           | alpha              | beta
  Highest 2-occ = -0.348157460332963 | -0.379073662395183 | -0.299014490249997
  Lowest 0-occ =  -0.320487864879095 | -0.330683630841929 | -0.310298404624668
  1-occ =         -0.337004311751637 | -0.388892717836029 |  -0.28512216727695
  1-occ =         -0.337004311751636 | -0.388892717836342 |   -0.2851221672772
  Roothaan mo_energy =
[-0.95567666 -0.94391119 -0.37077901 -0.34815746 -0.34815746 -0.33700431
 -0.33700431 -0.32048786  0.42504398  0.42504398  0.44784184  0.50228888
  0.52130807  0.52130807  0.74828842  1.00144174  1.42050732  1.4518047
  1.4518047   1.47992691  1.4800342   1.48299993  1.48310657  1.49349154
  1.49349154  1.65412046  2.86376653  2.86376653  2.9326845   2.93961102
  2.93961102  3.00307478  5.13321459  5.13321459  5.13438455  5.13438455
  5.14630792  5.14897414  5.14902603  5.14927203  5.14932409  5.1543562
  5.15775504  5.15775504  5.15775674  5.15775674  6.35723891  6.38750174
  6.38750174  6.40954422  6.41010116  6.41166943  6.41222659  6.41817151
  6.41817151  6.51184062 14.74287354 15.48629212]
nelec by numeric integration = [6.99999619 4.99999711]
    CPU time for vxc      0.29 sec, wall time      0.29 sec
    CPU time for df-vj      0.05 sec, wall time      0.05 sec
E1 = -67.07089726265008  Ecoul = 34.58257473101587  Exc = -6.47240063421809
cycle= 8 E= -31.6336540915754  delta_E= -1.17e-10  |g|= 5.78e-07  |ddm|= 2.02e-05
    CPU time for cycle= 8      0.34 sec, wall time      0.34 sec
  HOMO = -0.337004530799485  LUMO = -0.320488090048277
                  Roothaan           | alpha              | beta
  Highest 2-occ = -0.348157643596615 | -0.379070955879704 | -0.299011724387814
  Lowest 0-occ =  -0.320488090048277 | -0.330680686958518 | -0.310295493138036
  1-occ =         -0.337004530799493 | -0.388889778182443 | -0.285119278682628
  1-occ =         -0.337004530799485 | -0.388889778182445 | -0.285119278682625
  Roothaan mo_energy =
[-0.95567685 -0.94391139 -0.3707792  -0.34815764 -0.34815764 -0.33700453
 -0.33700453 -0.32048809  0.42504389  0.42504389  0.44784174  0.50228881
  0.52130799  0.52130799  0.7482883   1.00144159  1.42050722  1.45180459
  1.45180459  1.47992679  1.48003409  1.48299982  1.48310646  1.49349142
  1.49349142  1.65412031  2.86376633  2.86376633  2.93268421  2.93961084
  2.93961084  3.00307448  5.13321441  5.13321441  5.13438438  5.13438438
  5.14630778  5.14897397  5.14902587  5.14927187  5.14932392  5.15435605
  5.1577549   5.1577549   5.1577566   5.1577566   6.35723864  6.38750146
  6.38750146  6.40954396  6.41010093  6.41166918  6.41222635  6.41817123
  6.41817123  6.51184034 14.74287318 15.48629175]
nelec by numeric integration = [6.99999619 4.99999711]
    CPU time for vxc      0.28 sec, wall time      0.28 sec
    CPU time for df-vj      0.05 sec, wall time      0.05 sec
E1 = -67.0708992005126  Ecoul = 34.582577220328766  Exc = -6.472401185664619
Extra cycle  E= -31.6336540915715  delta_E= 3.85e-12  |g|= 4.21e-06  |ddm|= 2.87e-06
    CPU time for scf_cycle      3.42 sec, wall time      3.49 sec
    CPU time for SCF      3.42 sec, wall time      3.49 sec
converged SCF energy = -31.6336540915715
Using Python 3.x
Wavefunction successfully saved to QMCPACK HDF5 Format
Use: "convert4qmc -pyscf  scf.h5" to generate QMCPACK input files
