#INFO: **** input file is /home/abenali/Work/WorkShop/qmcpack_workshop_2021/qmc_workshop_2021/week4_molecules/03_qmc_ccECP/runs/O2/Dist_1.208/SCF/scf.py ****

#! /usr/bin/env python3

import numpy as np
from numpy import array

### generated pyscfimport text ###
from pyscf import df, scf, dft
### end generated pyscfimport text ###





### generated system text ###
from pyscf import gto as gto_loc
mol = gto_loc.Mole()
mol.verbose  = 5
mol.atom     = '''
               O    0.00000000   0.00000000   0.00000000
               O    0.00000000   0.00000000   1.20800000
               '''
mol.basis    = 'ccecp-ccpvtz'
mol.unit     = 'A'
mol.ecp      = 'ccecp'
mol.charge   = 0
mol.spin     = 2
mol.symmetry = True
mol.build()
### end generated system text ###




### generated calculation text ###
mf = scf.ROKS(mol).density_fit()
mf.max_cycle=200
mf.level_shift=0.0
mf.xc          = 'SCAN'
mf.tol         = '1e-10'
e_scf = mf.kernel()
### end generated calculation text ###



### generated conversion text ###
from PyscfToQmcpack import savetoqmcpack
savetoqmcpack(mol,mf,'scf')
### end generated conversion text ###

#INFO: ******************** input file end ********************


System: uname_result(system='Linux', node='abenali', release='5.11.0-38-generic', version='#42~20.04.1-Ubuntu SMP Tue Sep 28 20:41:07 UTC 2021', machine='x86_64', processor='x86_64')  Threads 1
Python 3.7.11 (default, Sep  9 2021, 02:06:38) 
[GCC 9.3.0]
numpy 1.20.3  scipy 1.6.2
Date: Mon Oct 25 18:42:07 2021
PySCF version 2.0.0a
PySCF path  /home/abenali/Work/src/pyscf
GIT HEAD (branch master) 3e8ba375fd4229f000289589fd02193633380853

[CONFIG] conf_file None
[INPUT] verbose = 5
[INPUT] max_memory = 4000 
[INPUT] num. atoms = 2
[INPUT] num. electrons = 12
[INPUT] charge = 0
[INPUT] spin (= nelec alpha-beta = 2S) = 2
[INPUT] symmetry True subgroup None
[INPUT] Mole.unit = A
[INPUT]  1 O      0.000000000000   0.000000000000   0.000000000000 AA    0.000000000000   0.000000000000   0.000000000000 Bohr
[INPUT]  2 O      0.000000000000   0.000000000000   1.208000000000 AA    0.000000000000   0.000000000000   2.282789158475 Bohr
[INPUT] ---------------- BASIS SET ---------------- 
[INPUT] l, kappa, [nprim/nctr], expnt,             c_1 c_2 ...
[INPUT] O
[INPUT] 0    0    [9    /1   ]  54.775216         -0.0012444
                                25.616801         0.010733
                                11.980245         0.0018889
                                6.992317          -0.1742537
                                2.620277          0.0017622
                                1.225429          0.3161846
                                0.577797          0.4512023
                                0.268022          0.3121534
                                0.125346          0.0511167
[INPUT] 0    0    [1    /1   ]  1.686633             1
[INPUT] 0    0    [1    /1   ]  0.237997             1
[INPUT] 1    0    [9    /1   ]  22.217266         0.0104866
                                10.74755          0.0366435
                                5.315785          0.0803674
                                2.660761          0.162701
                                1.331816          0.2377791
                                0.678626          0.2811422
                                0.333673          0.2643189
                                0.167017          0.1466014
                                0.083598          0.0458145
[INPUT] 1    0    [1    /1   ]  0.600621             1
[INPUT] 1    0    [1    /1   ]  0.184696             1
[INPUT] 2    0    [1    /1   ]  2.404278             1
[INPUT] 2    0    [1    /1   ]  0.66934              1
[INPUT] 3    0    [1    /1   ]  1.423104             1

nuclear repulsion = 15.7701817823841
point group symmetry = Dooh
num. orbitals of irrep A1g = 9
num. orbitals of irrep E1gx = 6
num. orbitals of irrep E1gy = 6
num. orbitals of irrep A1u = 9
num. orbitals of irrep E1uy = 6
num. orbitals of irrep E1ux = 6
num. orbitals of irrep E2gx = 3
num. orbitals of irrep E2gy = 3
num. orbitals of irrep E3gx = 1
num. orbitals of irrep E3gy = 1
num. orbitals of irrep E2uy = 3
num. orbitals of irrep E2ux = 3
num. orbitals of irrep E3uy = 1
num. orbitals of irrep E3ux = 1
number of shells = 18
number of NR pGTOs = 122
number of NR cGTOs = 58
basis = ccecp-ccpvtz
ecp = ccecp
CPU time:         0.37


******** <class 'pyscf.df.df_jk.density_fit.<locals>.DFHF'> ********
method = DFHF-SymAdaptedROKS-SymAdaptedROHF-ROHF-RHF
initial guess = minao
damping factor = 0
level_shift factor = 0.0
DIIS = <class 'pyscf.scf.diis.CDIIS'>
diis_start_cycle = 1
diis_space = 8
SCF conv_tol = 1e-09
SCF conv_tol_grad = None
SCF max_cycles = 200
direct_scf = True
direct_scf_tol = 1e-13
chkfile to save SCF result = /home/abenali/Work/WorkShop/qmcpack_workshop_2021/qmc_workshop_2021/week4_molecules/03_qmc_ccECP/runs/O2/Dist_1.208/SCF/tmp8smab33x
max_memory 4000 MB (current use 112 MB)
num. doubly occ = 5  num. singly occ = 2
XC library pyscf.dft.libxc version 5.1.5
    S. Lehtola, C. Steigemann, M. J. Oliveira, and M. A. Marques, SoftwareX 7, 1 (2018)
XC functionals = SCAN
    J. Sun, A. Ruzsinszky, and J. P. Perdew, Phys. Rev. Lett. 115, 036402 (2015)
    J. Sun, A. Ruzsinszky, and J. P. Perdew, Phys. Rev. Lett. 115, 036402 (2015)
radial grids: 
    Treutler-Ahlrichs [JCP 102, 346 (1995); DOI:10.1063/1.469408] (M4) radial grids
    
becke partition: Becke, JCP 88, 2547 (1988); DOI:10.1063/1.454033
pruning grids: <function nwchem_prune at 0x7f949c23edd0>
grids dens level: 3
symmetrized grids: True
atomic radii adjust function: <function treutler_atomic_radii_adjust at 0x7f949c247290>
small_rho_cutoff = 1e-07
Freeze 0 electrons in irreps []
    12 free electrons in irreps A1g E1gx E1gy A1u E1uy E1ux E2gx E2gy E3gx E3gy E2uy E2ux E3uy E3ux
Set gradient conv threshold to 3.16228e-05
atom O rad-grids = 75, ang-grids = [ 50  50  50  50  50  50  50  50  50  50  50  50  50  50  50  50  50  50
  50  50  50  50  86  86  86  86  86  86  86  86  86 266 266 266 266 266
 266 266 302 302 302 302 302 302 302 302 302 302 302 302 302 302 302 302
 302 302 302 266 266 266 266 266 266 266 266 266 266 266 266 266 266 266
 266 266 266]
tot grids = 28524
Drop grids 2404
    CPU time for setting up grids      0.04 sec, wall time      0.07 sec
nelec by numeric integration = [5.9999998 5.9999998]
    CPU time for vxc      0.44 sec, wall time      0.48 sec
Even tempered Gaussians are generated as DF auxbasis for  O
  ETB auxbasis for O  [[0, [64.177152, 1]], [0, [32.088576, 1]], [0, [16.044288, 1]], [0, [8.022144, 1]], [0, [4.011072, 1]], [0, [2.005536, 1]], [0, [1.002768, 1]], [0, [0.501384, 1]], [0, [0.250692, 1]], [1, [52.41108427692326, 1]], [1, [26.20554213846163, 1]], [1, [13.102771069230815, 1]], [1, [6.551385534615408, 1]], [1, [3.275692767307704, 1]], [1, [1.637846383653852, 1]], [1, [0.818923191826926, 1]], [1, [0.409461595913463, 1]], [1, [0.2047307979567315, 1]], [2, [42.802176, 1]], [2, [21.401088, 1]], [2, [10.700544, 1]], [2, [5.350272, 1]], [2, [2.675136, 1]], [2, [1.337568, 1]], [2, [0.668784, 1]], [2, [0.334392, 1]], [2, [0.167196, 1]], [3, [7.569571782318998, 1]], [3, [3.784785891159499, 1]], [3, [1.8923929455797495, 1]], [3, [0.9461964727898747, 1]], [3, [0.47309823639493737, 1]], [4, [5.35472, 1]], [4, [2.67736, 1]], [4, [1.33868, 1]]]
num shells = 70, num cGTOs = 286
    CPU time for df-vj      0.09 sec, wall time      0.09 sec
E1 = -83.22491871789325  Ecoul = 42.14444400758405  Exc = -6.639956602265672
init E= -31.9502495301908
cond(S) = 1162.8404066970609
    CPU time for initialize scf      0.62 sec, wall time      0.72 sec
HOMO (E1gx) = -0.258753927898526  LUMO (A1u) = 0.124355211137271
double occ irrep_nelec = [2, 0, 0, 1, 1, 1, 0, 0, 0, 0, 0, 0, 0, 0]
single occ irrep_nelec = [0, 1, 1, 0, 0, 0, 0, 0, 0, 0, 0, 0, 0, 0]
                  Roothaan           | alpha              | beta
  Highest 2-occ = -0.515346499686209 | -0.515346499686209 | -0.515346499686209
  Lowest 0-occ =   0.124355211137271 |  0.124355211137275 |  0.124355211137275
  1-occ =         -0.258753927898526 | -0.258753927898526 | -0.258753927898526
  1-occ =         -0.258753927898527 | -0.258753927898527 | -0.258753927898527
  Roothaan mo_energy =
[-1.28502279 -0.55552742  0.46307842  0.73186688  2.04295858  3.14173002
  5.04336475  7.74186724 15.31160377 -0.25875393  0.53672645  2.18716284
  3.1474577   6.53021543  7.41424676 -0.25875393  0.53672645  2.18716284
  3.1474577   6.53021543  7.41424676 -0.83786776  0.12435521  0.40520362
  1.28954352  2.09796148  4.08528253  5.92001444  7.01800346 21.21566098
 -0.5153465   0.41771776  1.30682563  2.77509674  4.72546834  6.66259439
 -0.5153465   0.41771776  1.30682563  2.77509674  4.72546834  6.66259439
  1.25082021  4.63350091  6.3167224   1.25038668  4.63402675  6.31655758
  5.23582758  5.23582758  1.66014677  5.79175366  6.53179464  1.66043227
  5.79178987  6.53205085  4.98621946  4.98621946]
nelec by numeric integration = [6.99999977 4.99999981]
    CPU time for vxc      0.35 sec, wall time      0.35 sec
    CPU time for df-vj      0.10 sec, wall time      0.10 sec
E1 = -83.75953351203502  Ecoul = 42.9506831411324  Exc = -6.8945048027213
cycle= 1 E= -31.9331733912398  delta_E= 0.0171  |g|= 0.217  |ddm|=    2
    CPU time for cycle= 1      0.45 sec, wall time      0.45 sec
HOMO (E1gx) = -0.185012095419654  LUMO (A1u) = 0.182797112924458
double occ irrep_nelec = [2, 0, 0, 1, 1, 1, 0, 0, 0, 0, 0, 0, 0, 0]
single occ irrep_nelec = [0, 1, 1, 0, 0, 0, 0, 0, 0, 0, 0, 0, 0, 0]
                  Roothaan           | alpha              | beta
  Highest 2-occ = -0.460109531421111 | -0.486245551704296 | -0.414894709833418
  Lowest 0-occ =   0.182797112924458 |  0.157508818307983 |  0.208085407540942
  1-occ =         -0.185012095419654 | -0.247262688108971 | -0.122773647536385
  1-occ =         -0.185012095419655 | -0.247262688108972 | -0.122773647536386
  Roothaan mo_energy =
[-1.24638904 -0.46719135  0.50679477  0.78015717  2.09912555  3.20305048
  5.06436     7.80445044 15.41517199 -0.1850121   0.57427553  2.24130612
  3.21820539  6.581893    7.4819443  -0.1850121   0.57427553  2.24130612
  3.21820539  6.581893    7.4819443  -0.74788189  0.18279711  0.4704011
  1.32977843  2.15739201  4.16114741  5.99108984  7.07059865 21.31073982
 -0.46010953  0.44980552  1.34187219  2.84475868  4.75609193  6.72698698
 -0.46010953  0.44980552  1.34187219  2.84475868  4.75609193  6.72698698
  1.28350424  4.67192637  6.39229494  1.28333353  4.67184309  6.39153512
  5.28692305  5.28692305  1.70221144  5.84072501  6.61405461  1.70225069
  5.84069368  6.61493293  5.0329137   5.0329137 ]
nelec by numeric integration = [6.99999978 4.99999981]
    CPU time for vxc      0.35 sec, wall time      0.35 sec
    CPU time for df-vj      0.10 sec, wall time      0.10 sec
E1 = -83.40920329681782  Ecoul = 42.48889915994105  Exc = -6.788690473128744
cycle= 2 E= -31.9388128276214  delta_E= -0.00564  |g|= 0.106  |ddm|= 0.304
    CPU time for cycle= 2      0.46 sec, wall time      0.46 sec
HOMO (E1gx) = -0.211706361833274  LUMO (A1u) = 0.163393991154682
double occ irrep_nelec = [2, 0, 0, 1, 1, 1, 0, 0, 0, 0, 0, 0, 0, 0]
single occ irrep_nelec = [0, 1, 1, 0, 0, 0, 0, 0, 0, 0, 0, 0, 0, 0]
                  Roothaan           | alpha              | beta
  Highest 2-occ = -0.480924426877981 |   -0.5307624359587 |  -0.44331892581929
  Lowest 0-occ =   0.163393991154682 |  0.129713775258815 |  0.180638401055609
  1-occ =         -0.211706361833274 | -0.285859266721433 | -0.158810637246679
  1-occ =         -0.211706361833275 | -0.285859266721433 | -0.158810637246679
  Roothaan mo_energy =
[-1.26280583 -0.4991573   0.49573336  0.76354381  2.07877597  3.17690836
  5.04440274  7.77335151 15.3725736  -0.21170636  0.56395541  2.22282152
  3.19376278  6.55462844  7.45641751 -0.21170636  0.56395541  2.22282152
  3.19376278  6.55462844  7.45641751 -0.77874418  0.16339399  0.45041129
  1.3165913   2.13734368  4.13637239  5.96133205  7.045048   21.26574672
 -0.48092443  0.44011583  1.32577417  2.81805175  4.73981424  6.69453433
 -0.48092443  0.44011583  1.32577417  2.81805175  4.73981424  6.69453433
  1.27216066  4.65375087  6.36260426  1.27198411  4.6536476   6.36214133
  5.26926794  5.26926794  1.68791812  5.82253717  6.58306913  1.6879771
  5.82253625  6.58364162  5.01576428  5.01576428]
nelec by numeric integration = [6.99999978 4.99999981]
    CPU time for vxc      0.35 sec, wall time      0.35 sec
    CPU time for df-vj      0.10 sec, wall time      0.10 sec
E1 = -83.61366129002451  Ecoul = 42.74446414847612  Exc = -6.841798753758252
cycle= 3 E= -31.9408141129225  delta_E= -0.002  |g|= 0.0197  |ddm|= 0.136
    CPU time for cycle= 3      0.45 sec, wall time      0.45 sec
HOMO (E1gx) = -0.206362858688519  LUMO (A1u) = 0.167847831493103
double occ irrep_nelec = [2, 0, 0, 1, 1, 1, 0, 0, 0, 0, 0, 0, 0, 0]
single occ irrep_nelec = [0, 1, 1, 0, 0, 0, 0, 0, 0, 0, 0, 0, 0, 0]
                  Roothaan           | alpha              | beta
  Highest 2-occ = -0.476147436919382 | -0.508014550791194 | -0.425538497054713
  Lowest 0-occ =   0.167847831493103 |  0.146123983047207 |  0.197326449654631
  1-occ =         -0.206362858688519 | -0.265409810016619 | -0.138140077622338
  1-occ =          -0.20636285868852 |  -0.26540981001662 | -0.138140077622339
  Roothaan mo_energy =
[-1.25691752 -0.49413032  0.49763702  0.76689176  2.08221882  3.18262052
  5.04968536  7.77916046 15.38005834 -0.20636286  0.56588314  2.22599414
  3.19873237  6.56065977  7.46082668 -0.20636286  0.56588314  2.22599414
  3.19873237  6.56065977  7.46082668 -0.77397547  0.16784783  0.45383021
  1.31929604  2.14114354  4.14077767  5.9658455   7.05129193 21.27431435
 -0.47614744  0.4424671   1.32933414  2.8231113   4.74449213  6.70028602
 -0.47614744  0.4424671   1.32933414  2.8231113   4.74449213  6.70028602
  1.27529276  4.65794641  6.36853103  1.2751257   4.65782401  6.36810267
  5.27333256  5.27333256  1.69101533  5.82707442  6.58873517  1.69106491
  5.82705908  6.58929372  5.01981024  5.01981024]
nelec by numeric integration = [6.99999978 4.99999981]
    CPU time for vxc      0.35 sec, wall time      0.35 sec
    CPU time for df-vj      0.10 sec, wall time      0.10 sec
E1 = -83.5703444122558  Ecoul = 42.691654802770266  Exc = -6.8323790513439215
cycle= 4 E= -31.9408868784454  delta_E= -7.28e-05  |g|= 0.0014  |ddm|= 0.0205
    CPU time for cycle= 4      0.45 sec, wall time      0.45 sec
HOMO (E1gy) = -0.205993275914615  LUMO (A1u) = 0.168026881823943
double occ irrep_nelec = [2, 0, 0, 1, 1, 1, 0, 0, 0, 0, 0, 0, 0, 0]
single occ irrep_nelec = [0, 1, 1, 0, 0, 0, 0, 0, 0, 0, 0, 0, 0, 0]
                  Roothaan           | alpha              | beta
  Highest 2-occ = -0.476046100813551 | -0.511969463466596 | -0.429536195681103
  Lowest 0-occ =   0.168026881823943 |  0.142567207175358 |  0.193698897541772
  1-occ =         -0.205993275914615 | -0.269463659316214 | -0.142205795640399
  1-occ =         -0.205993275914615 | -0.269463659316214 |   -0.1422057956404
  Roothaan mo_energy =
[-1.25682414 -0.49383517  0.497735    0.76701796  2.08239114  3.18277717
  5.04955125  7.77938355 15.38029006 -0.20599328  0.56594381  2.22623359
  3.19894938  6.56078513  7.4611084  -0.20599328  0.56594381  2.22623359
  3.19894938  6.56078513  7.4611084  -0.77369832  0.16802688  0.45412804
  1.31955033  2.14143494  4.14105627  5.96626837  7.05135999 21.27449408
 -0.4760461   0.4425375   1.32936933  2.82325095  4.74460925  6.70042611
 -0.4760461   0.4425375   1.32936933  2.82325095  4.74460925  6.70042611
  1.2753528   4.65809659  6.3687413   1.27519303  4.65795274  6.36833075
  5.27358916  5.27358916  1.69120373  5.82725662  6.58905675  1.69124799
  5.8272358   6.58960552  5.02001092  5.02001092]
nelec by numeric integration = [6.99999978 4.99999981]
    CPU time for vxc      0.35 sec, wall time      0.35 sec
    CPU time for df-vj      0.10 sec, wall time      0.10 sec
E1 = -83.56990501253405  Ecoul = 42.69100884108556  Exc = -6.832172894051003
cycle= 5 E= -31.9408872831154  delta_E= -4.05e-07  |g|= 0.00021  |ddm|= 0.00192
    CPU time for cycle= 5      0.45 sec, wall time      0.45 sec
HOMO (E1gx) = -0.205932366733304  LUMO (A1u) = 0.168068809883561
double occ irrep_nelec = [2, 0, 0, 1, 1, 1, 0, 0, 0, 0, 0, 0, 0, 0]
single occ irrep_nelec = [0, 1, 1, 0, 0, 0, 0, 0, 0, 0, 0, 0, 0, 0]
                  Roothaan           | alpha              | beta
  Highest 2-occ = -0.476000103947393 | -0.512057551288268 |  -0.42955644461345
  Lowest 0-occ =   0.168068809883561 |  0.142536243328073 |  0.193672838200709
  1-occ =         -0.205932366733304 | -0.269534519288379 | -0.142250536243812
  1-occ =         -0.205932366733305 | -0.269534519288379 | -0.142250536243813
  Roothaan mo_energy =
[-1.25676307 -0.49378788  0.49774209  0.76704905  2.08241951  3.18283566
  5.0495913   7.77944301 15.38037516 -0.20593237  0.56595409  2.22626238
  3.19900077  6.56084722  7.46115701 -0.20593237  0.56595409  2.22626238
  3.19900077  6.56084722  7.46115701 -0.77365392  0.16806881  0.45416045
  1.31958485  2.14147628  4.14110594  5.9663203   7.05141844 21.27459646
 -0.4760001   0.44255601  1.32939746  2.82330013  4.7446591   6.70048089
 -0.4760001   0.44255601  1.32939746  2.82330013  4.7446591   6.70048089
  1.2753824   4.65813721  6.36880434  1.27522297  4.65799336  6.36839578
  5.27363445  5.27363445  1.69123599  5.82730796  6.58911899  1.69128034
  5.82728719  6.58966634  5.02005382  5.02005382]
nelec by numeric integration = [6.99999978 4.99999981]
    CPU time for vxc      0.35 sec, wall time      0.35 sec
    CPU time for df-vj      0.10 sec, wall time      0.10 sec
E1 = -83.56942882396338  Ecoul = 42.69043147070586  Exc = -6.8320717204454375
cycle= 6 E= -31.9408872913189  delta_E= -8.2e-09  |g|= 8.63e-06  |ddm|= 0.00022
    CPU time for cycle= 6      0.45 sec, wall time      0.45 sec
HOMO (E1gx) = -0.205934803214736  LUMO (A1u) = 0.168067007570672
double occ irrep_nelec = [2, 0, 0, 1, 1, 1, 0, 0, 0, 0, 0, 0, 0, 0]
single occ irrep_nelec = [0, 1, 1, 0, 0, 0, 0, 0, 0, 0, 0, 0, 0, 0]
                  Roothaan           | alpha              | beta
  Highest 2-occ = -0.476002209149835 | -0.512099752102907 | -0.429600120925349
  Lowest 0-occ =   0.168067007570672 |  0.142497142489264 |  0.193633415441888
  1-occ =         -0.205934803214736 | -0.269579310138273 | -0.142294339861709
  1-occ =         -0.205934803214736 | -0.269579310138274 | -0.142294339861711
  Roothaan mo_energy =
[-1.25676548 -0.49378983  0.49774124  0.76704769  2.08241817  3.18283345
  5.04958933  7.77944108 15.38037216 -0.2059348   0.56595315  2.22626098
  3.19899869  6.56084482  7.46115517 -0.2059348   0.56595315  2.22626098
  3.19899869  6.56084482  7.46115517 -0.77365596  0.16806701  0.45415913
  1.31958393  2.14147497  4.14110411  5.96631862  7.0514162  21.27459323
 -0.47600221  0.44255492  1.32939586  2.82329788  4.74465741  6.70047856
 -0.47600221  0.44255492  1.32939586  2.82329788  4.74465741  6.70047856
  1.27538105  4.6581355   6.3688019   1.27522162  4.65799166  6.36839335
  5.27363276  5.27363276  1.69123471  5.82730622  6.5891167   1.69127907
  5.82728546  6.58966402  5.02005209  5.02005209]
nelec by numeric integration = [6.99999978 4.99999981]
    CPU time for vxc      0.34 sec, wall time      0.34 sec
    CPU time for df-vj      0.10 sec, wall time      0.10 sec
E1 = -83.56944707760894  Ecoul = 42.69045371923692  Exc = -6.832075715345222
cycle= 7 E= -31.9408872913331  delta_E= -1.43e-11  |g|= 6.76e-07  |ddm|= 8.6e-06
    CPU time for cycle= 7      0.45 sec, wall time      0.45 sec
HOMO (E1gx) = -0.205935103757804  LUMO (A1u) = 0.168066781544812
double occ irrep_nelec = [2, 0, 0, 1, 1, 1, 0, 0, 0, 0, 0, 0, 0, 0]
single occ irrep_nelec = [0, 1, 1, 0, 0, 0, 0, 0, 0, 0, 0, 0, 0, 0]
                  Roothaan           | alpha              | beta
  Highest 2-occ = -0.476002450592412 |  -0.51209808625705 |  -0.42959844026546
  Lowest 0-occ =   0.168066781544812 |  0.142498625475672 |  0.193634937613941
  1-occ =         -0.205935103757804 | -0.269577592718242 | -0.142292607430654
  1-occ =         -0.205935103757805 | -0.269577592718242 | -0.142292607430655
  Roothaan mo_energy =
[-1.2567658  -0.49379008  0.4977412   0.76704754  2.08241803  3.18283314
  5.04958908  7.77944077 15.38037171 -0.2059351   0.5659531   2.22626084
  3.19899844  6.56084448  7.46115492 -0.2059351   0.5659531   2.22626084
  3.19899844  6.56084448  7.46115492 -0.77365619  0.16806678  0.45415897
  1.31958378  2.14147477  4.14110387  5.96631837  7.05141589 21.27459269
 -0.47600245  0.44255483  1.3293957   2.82329761  4.74465715  6.70047825
 -0.47600245  0.44255483  1.3293957   2.82329761  4.74465715  6.70047825
  1.2753809   4.65813529  6.36880157  1.27522147  4.65799144  6.36839302
  5.27363254  5.27363254  1.69123457  5.82730596  6.58911639  1.69127893
  5.8272852   6.58966372  5.02005188  5.02005188]
nelec by numeric integration = [6.99999978 4.99999981]
    CPU time for vxc      0.34 sec, wall time      0.34 sec
    CPU time for df-vj      0.10 sec, wall time      0.10 sec
E1 = -83.56944969315924  Ecoul = 42.69045688857925  Exc = -6.83207626913727
Extra cycle  E= -31.9408872913332  delta_E= -2.13e-14  |g|= 5.16e-07  |ddm|= 1.17e-06
    CPU time for scf_cycle      4.25 sec, wall time      4.35 sec
    CPU time for SCF      4.25 sec, wall time      4.35 sec
converged SCF energy = -31.9408872913332
Using Python 3.x
Wavefunction successfully saved to QMCPACK HDF5 Format
Use: "convert4qmc -pyscf  scf.h5" to generate QMCPACK input files
