  Input file(s): dmc.in.xml 

=====================================================
                    QMCPACK 3.11.9

       (c) Copyright 2003-  QMCPACK developers

                    Please cite:
 J. Kim et al. J. Phys. Cond. Mat. 30 195901 (2018)
      https://doi.org/10.1088/1361-648X/aab9c3

  Git branch: develop
  Last git commit: 1e04b4793bbdadcd1bcdf36287c3837f2cf87452-dirty
  Last git commit date: Thu Oct 7 17:34:02 2021 -0500
  Last git commit subject: Merge pull request #3518 from williamfgc/ci-afqmc-docs
=====================================================
  Global options 

  Total number of MPI ranks = 16
  Number of MPI groups      = 1
  MPI group ID              = 0
  Number of ranks in group  = 16
  MPI ranks per node        = 16
  OMP 1st level threads     = 1
  OMP nested threading disabled or only 1 thread on the 2nd level

  Precision used in this calculation, see definitions in the manual:
  Base precision      = double
  Full precision      = double

  CPU only build
  Timer build option is enabled. Current timer level is coarse

  Input XML = dmc.in.xml

  Project = dmc
  date    = 2021-10-20 14:28:39 CDT
  host    = abenali


 Random Number
 -------------
  Offset for the random number seeds from input file (mod 1024): 42

  Range of prime numbers to use as seeds over processors and threads = 193-281


 Lattice
 -------
  Lattice is not specified for the Open BC. Add a huge box.
  Simulation cell radius   = 5000000000.000000 bohr
  Wigner-Seitz cell radius = 5000000000.000000 bohr


 Particle Set
 ------------
  Name: ion0   Offload : 

  Initializing the lattice by the global supercell
  All the species have the same mass 1.000000
  Particle set size: 2


 Particle Set
 ------------
  Name: e   Offload : 

  Initializing the lattice by the global supercell
  All the species have the same mass 1.000000
  Particle set size: 8


 Many-body wavefunction
 -------------------
  Name: psi0   Tasking: no

WARNING !!!!!!! Deprecated input style: creating SPO set inside determinantset. Support for this usage will soon be removed. SPO sets should be built outside.
WARNING !!!!!!! Deprecated input style: missing basisset element. LCAO needs an explicit basisset XML element. Fallback on loading an implicit one.
  LCAO: SoaAtomicBasisSet<MultiQuintic,1>
Reading BasisSet from HDF5 file:../SCF/scf.h5
<input node="atomicBasisSet" name="gaussia" expandYlm="pyscf" angular="spherical" elementType="Be" normalized="no" type="Numerical" expM="1" />
  AO BasisSet for Be
   Spherical Harmonics contain (-1)^m factor
   Angular momentum m expanded as -l, ... ,l, with the exception of L=1 (1,-1,0)
   Grid is created by the input parameters in h5
    Using log grid ri = 0.000001 rf = 100.000000 npts = 1001
   R(n,l,m,s) 0 0 0 0
   R(n,l,m,s) 1 0 0 0
   R(n,l,m,s) 2 0 0 0
   R(n,l,m,s) 3 0 0 0
   R(n,l,m,s) 4 1 0 0
   R(n,l,m,s) 5 1 0 0
   R(n,l,m,s) 6 1 0 0
   R(n,l,m,s) 7 2 0 0
   R(n,l,m,s) 8 2 0 0
   R(n,l,m,s) 9 3 0 0
Expanding Ylm as L=1 as (1,-1,0) and L>1 as -l,-l+1,...,l-1,l
   Adding 1 spherical orbitals
   Adding 1 spherical orbitals
   Adding 1 spherical orbitals
   Adding 1 spherical orbitals
   Adding 3 spherical orbitals
   Adding 3 spherical orbitals
   Adding 3 spherical orbitals
   Adding 5 spherical orbitals
   Adding 5 spherical orbitals
   Adding 7 spherical orbitals
  Setting cutoff radius 512286019.354503

   Maximum Angular Momentum  = 3
   Number of Radial functors = 10
   Basis size                = 30

  Created SPOSet builder named 'LCAOBSet' of type molecularorbital

   Single Slater determinant
   -------------------------

     Determinant
     -----------
      Name: updet   Spin group: 0   SPO name: updet

WARNING !!!!!!! Deprecated input style: creating SPO set inside determinantset. Support for this usage will soon be removed. SPO sets should be built outside.
      Create a new SPO set updet

     Single particle orbitals (SPO)
     ------------------------------
      Name:    Type: LCAO   Builder class name: LCAOrbitalBuilder

WARNING SPOSet object name not given in the input!
        Using cusp correction.
Reading cusp info from : ../SCF/updet.cuspInfo.xml
Found precomputed cusp data for spo set: updet
WARNING SPOSet object doesn't have a name.
      Setting delay_rank to default value 1
      Using rank-1 Sherman-Morrison Fahy update (SM1)
      Running on CPU.


     Determinant
     -----------
      Name: downdet   Spin group: 1   SPO name: downdet

WARNING !!!!!!! Deprecated input style: creating SPO set inside determinantset. Support for this usage will soon be removed. SPO sets should be built outside.
      Create a new SPO set downdet

     Single particle orbitals (SPO)
     ------------------------------
      Name:    Type: LCAO   Builder class name: LCAOrbitalBuilder

WARNING SPOSet object name not given in the input!
        Using cusp correction.
Reading cusp info from : ../SCF/downdet.cuspInfo.xml
Found precomputed cusp data for spo set: downdet
WARNING SPOSet object doesn't have a name.
      Setting delay_rank to default value 1
      Using rank-1 Sherman-Morrison Fahy update (SM1)
      Running on CPU.

  Added a fermionic WaveFunctionComponent SlaterDet
  QMCHamiltonian::addOperator Kinetic to H, physical Hamiltonian 

 Hamiltonian and observables
 ---------------------------
  Name: h0

  QMCHamiltonian::addOperator ElecElec to H, physical Hamiltonian 
QMCHamiltonian::addOperatorType added type coulomb named ElecElec
  QMCHamiltonian::addOperator IonIon to H, physical Hamiltonian 
QMCHamiltonian::addOperatorType added type coulomb named IonIon
  QMCHamiltonian::addOperator ElecIon to H, physical Hamiltonian 
QMCHamiltonian::addOperatorType added type coulomb named ElecIon

  QMCHamiltonian::add2WalkerProperty added
    4 to P::PropertyList 
    0 to P::Collectables 
    starting Index of the observables in P::PropertyList = 9
ParticleSetPool::randomize 1 ParticleSet.
<init source="ion0" target="e">
</init>
  Initialization Execution time = 0.0262 secs
=========================================================
 Summary of QMC systems 
=========================================================
ParticleSetPool has: 

  ParticleSet 'e' contains 8 particles :  u(4) d(4)

    u  5.4567462879e-01  1.1988757063e+00 -9.0826000696e-01
    u -1.4692950359e+00 -1.0839144827e-01 -6.2403797277e-01
    u  5.8961737838e+00 -3.2605087954e-01 -9.3126776613e-01
    u  5.4250078088e+00  6.2887151030e-01  1.2421727655e+00
    d  1.2294858156e+00  7.3690730451e-01 -7.1086725473e-01
    d -3.4676133570e-01 -1.3269143703e+00  8.2404783227e-01
    d  4.6578601194e+00 -1.2450998705e+00 -1.0046272547e+00
    d  3.1715465712e+00  6.1079977841e-01  2.0107621546e-01

  Distance table for dissimilar particles (A-B):
    source: ion0  target: e
    Using structure-of-arrays (SoA) data layout
    Distance computations use open boundary conditions in 3D.

  Distance table for similar particles (A-A):
    source/target: e
    Using structure-of-arrays (SoA) data layout
    Distance computations use open boundary conditions in 3D.


  ParticleSet 'ion0' contains 2 particles :  Be(2)

    Be  0.0000000000e+00  0.0000000000e+00  0.0000000000e+00
    Be  4.6366376900e+00  0.0000000000e+00  0.0000000000e+00

  Distance table for similar particles (A-A):
    source/target: ion0
    Using structure-of-arrays (SoA) data layout
    Distance computations use open boundary conditions in 3D.


  Hamiltonian h0
  Kinetic         Kinetic energy
  ElecElec        CoulombAB source=e

  IonIon          CoulombAA source/target ion0

  ElecIon         CoulombAA source/target ion0



=========================================================
  Start VMC
  File Root dmc.s000 append = no 
=========================================================
Resetting walkers
  Adding 1 walkers to 0 existing sets
  Total number of walkers: 1.6000000000e+01
  Total weight: 1.6000000000e+01
  Resetting Properties of the walkers 1 x 13

<vmc function="put">
  qmc_counter=0  my_counter=0
  time step      = 1.0000000000e-01
  blocks         = 50
  steps          = 20
  substeps       = 3
  current        = 0
  target samples = 1.0240000000e+03
  walkers/mpi    = 1

  stepsbetweensamples = 15
<parameter name="blocks">50</parameter>
<parameter name="blocks_between_recompute">0</parameter>
<parameter name="check_properties">100</parameter>
<parameter name="checkproperties">100</parameter>
<parameter name="current">0</parameter>
<parameter name="dmcwalkersperthread">6.4000000000e+01</parameter>
<parameter name="max_seconds">360000</parameter>
<parameter name="maxcpusecs">360000</parameter>
<parameter name="record_configs">0</parameter>
<parameter name="record_walkers">15</parameter>
<parameter name="recordconfigs">0</parameter>
<parameter name="recordwalkers">15</parameter>
<parameter name="samples">1.0240000000e+03</parameter>
<parameter name="samplesperthread">6.4000000000e+01</parameter>
<parameter name="spinmass">1.0000000000e+00</parameter>
<parameter name="steps">20</parameter>
<parameter name="stepsbetweensamples">15</parameter>
<parameter name="store_configs">0</parameter>
<parameter name="storeconfigs">0</parameter>
<parameter name="sub_steps">3</parameter>
<parameter name="substeps">3</parameter>
<parameter name="tau">1.0000000000e-01</parameter>
<parameter name="time_step">1.0000000000e-01</parameter>
<parameter name="timestep">1.0000000000e-01</parameter>
<parameter name="use_drift">yes</parameter>
<parameter name="usedrift">yes</parameter>
<parameter name="walkers">1</parameter>
<parameter name="warmup_steps">30</parameter>
<parameter name="warmupsteps">30</parameter>
  DumpConfig==false Nothing (configurations, state) will be saved.
  Walker Samples are dumped every 15 steps.
</vmc>
  Set drift_modifier UNR parameter a = 1.0000000000e+00
  Adding a default LocalEnergyEstimator for the MainEstimator 
  Initial partition of walkers 0 1 

  Using Particle by Particle moves
  Walker moves with drift
  Total Sample Size   =1024
  Walker distribution on root = 0 1 
========================================================================
--- Memory usage report : Memory Usage after the buffer registration ---
========================================================================
Available memory on node 0, free + buffers :   18622 MiB
Memory footprint by rank 0 on node 0       :      88 MiB
========================================================================
  Anonymous Buffer size per walker : 18272 Bytes.
MEMORY increase 0 MB VMC::resetRun
====================================================
  SimpleFixedNodeBranch::finalize after a VMC block
    QMC counter        = 0
    time step          = 0.1
    reference energy   = -29.0961
    reference variance = 5.75663
====================================================
  QMC Execution time = 3.9459e-01 secs
BRANCH resetRun
 SimpleFixedNodeBranch::resetRun detected changes in <parameter>'s 
 BranchMode : 0000001100 0000001100
 iParam (old):                 30                 1                 0              1024                16                16                 1                 0
 iParam (new):                 50                 1                 0              1024                16                16                 1                 0
 vParam (old):   1.0000000000e-01  1.0000000000e-01 -2.9096122054e+01 -2.9096122054e+01  1.0000000000e+00  1.0000000000e+00  1.0000000000e+00  1.0000000000e+00  5.7566266515e+00 -2.9096122054e+01  1.0000000000e+00  1.0000000000e+00  1.0000000000e+01  1.0000000000e+00  1.0000000000e+00  1.0000000000e+00  1.0000000000e+00
 vParam (new):   1.0000000000e-02  1.0000000000e-01 -2.9096122054e+01 -2.9096122054e+01  1.0000000000e+00  1.0000000000e+00  1.0000000000e+00  1.0000000000e+00  5.7566266515e+00 -2.9096122054e+01  1.0000000000e+00  1.0000000000e+00  1.0000000000e+01  1.0000000000e+00  1.0000000000e+00  1.0000000000e+00  1.0000000000e+00

=========================================================
  Start DMC
  File Root dmc.s001 append = no 
=========================================================
Using existing walkers 
  Resetting Properties of the walkers 1 x 13
  Set drift_modifier UNR parameter a = 1.0000000000e+00
  Cannot make clones again. Use existing 1 clones
  Total number of walkers: 1.0240000000e+03
  Total weight: 1.0240000000e+03
  Creating WalkerController: target  number of walkers = 1024
  Using WalkerControlMPI for dynamic population control.
  START ALL OVER 
  WalkerControlBase parameters 
    maxCopy = 2
    Max Walkers per MPI rank 129
    Min Walkers per MPI rank 13
    Using non-blocking send/recv
  QMC counter      = 1
  time step        = 1.0000000000e-02
  effective time step = 1.0000000000e-02
  trial energy     = -2.9096122054e+01
  reference energy = -2.9096122054e+01
  Feedback = 1.0000000000e+00
  reference variance = 5.7566266515e+00
  target walkers = 1024
  branching cutoff scheme classic
  branch cutoff = 5.7566266515e+01 8.6349399772e+01
  Max and minimum walkers per node= 129 13
  QMC Status (BranchMode) = 0000001101
Using DMCUpdatePbyPWithRejectionFast
  Initial partition of walkers on a node: 0 64 
  Updates by particle-by-particle moves
  DMC moves are rejected when a node crossing is detected
========================================================================
--- Memory usage report : Memory Usage after the buffer registration ---
========================================================================
Available memory on node 0, free + buffers :   18577 MiB
Memory footprint by rank 0 on node 0       :      93 MiB
========================================================================
SimpleFixedNodeBranch::checkParameters 
  Average Energy of a population  = -29.0961
  Energy Variance = 5.75663

  Fluctuating population
  Persistent walkers are killed after 1 MC sweeps
  BranchInterval = 1
  Steps per block = 30
  Number of blocks = 250

  DMC Engine Initialization = 4.7879219055e-03 secs

 Warmup is completed after 50

  TauEff     = 9.6339615012e-03
 TauEff/Tau = 9.6339615012e-01
  Etrial     = -2.9427704920e+01
 Running average of energy = -2.9242771730e+01
                  Variance = 4.8029381089e+00
branch cutoff = 4.8029381089e+01 7.2044071634e+01
====================================================
  SimpleFixedNodeBranch::finalize after a DMC block
    QMC counter                   = 1
    time step                     = 0.01
    effective time step           = 0.00963738
    trial energy                  = -29.3478
    reference energy              = -29.3208
    reference variance            = 4.80294
    target walkers                = 1024
    branch cutoff                 = 48.0294 72.0441
    Max and minimum walkers per node= 129 13
    Feedback                      = 1
    QMC Status (BranchMode)       = 0000001111
====================================================
  QMC Execution time = 2.5835e+01 secs
  Total Execution time = 2.6232e+01 secs

=========================================================
  A new xml input file : dmc.s001.cont.xml

Use --enable-timers=<value> command line option to increase or decrease level of timing information
Stack timer profile
Timer      Inclusive_time  Exclusive_time  Calls       Time_per_call
Total        26.2604     0.0001              1      26.260364056
  DMC        25.8362    25.8362              1      25.836177111
  Startup     0.0287     0.0287              1       0.028678894
  VMC         0.3954     0.3954              1       0.395436049

QMCPACK execution completed successfully
