#INFO: **** input file is /home/abenali/Work/WorkShop/qmcpack_workshop_2021/qmc_workshop_2021/week4_molecules/Be2/01_qmc_SD/runs/Be2/cc-pvqz/PBE/SCF/scf.py ****

#! /usr/bin/env python3

import numpy as np
from numpy import array

### generated pyscfimport text ###
from pyscf import df, scf, dft
### end generated pyscfimport text ###





### generated system text ###
from pyscf import gto as gto_loc
mol = gto_loc.Mole()
mol.verbose  = 5
mol.atom     = '''
               Be   0.00000000   0.00000000   0.00000000
               Be   4.63663771   0.00000000   0.00000000
               '''
mol.basis    = 'cc-pvqz'
mol.unit     = 'B'
mol.charge   = 0
mol.spin     = 0
mol.symmetry = True
mol.build()
### end generated system text ###




### generated calculation text ###
mf = scf.ROKS(mol).density_fit()
mf.max_cycle=200
mf.level_shift=0.0
mf.xc          = 'PBE'
mf.tol         = '1e-10'
e_scf = mf.kernel()
### end generated calculation text ###



### generated conversion text ###
from PyscfToQmcpack import savetoqmcpack
savetoqmcpack(mol,mf,'scf')
### end generated conversion text ###

#INFO: ******************** input file end ********************


System: uname_result(system='Linux', node='abenali', release='5.11.0-38-generic', version='#42~20.04.1-Ubuntu SMP Tue Sep 28 20:41:07 UTC 2021', machine='x86_64', processor='x86_64')  Threads 1
Python 3.7.11 (default, Sep  9 2021, 02:06:38) 
[GCC 9.3.0]
numpy 1.20.3  scipy 1.6.2
Date: Thu Oct 21 22:45:20 2021
PySCF version 2.0.0a
PySCF path  /home/abenali/Work/src/pyscf
GIT HEAD (branch master) 3e8ba375fd4229f000289589fd02193633380853

[CONFIG] conf_file None
[INPUT] verbose = 5
[INPUT] max_memory = 4000 
[INPUT] num. atoms = 2
[INPUT] num. electrons = 8
[INPUT] charge = 0
[INPUT] spin (= nelec alpha-beta = 2S) = 0
[INPUT] symmetry True subgroup None
[INPUT] Mole.unit = B
[INPUT]  1 Be     0.000000000000   0.000000000000   0.000000000000 AA    0.000000000000   0.000000000000   0.000000000000 Bohr
[INPUT]  2 Be     2.453603011424   0.000000000000   0.000000000000 AA    4.636637710000   0.000000000000   0.000000000000 Bohr
[INPUT] ---------------- BASIS SET ---------------- 
[INPUT] l, kappa, [nprim/nctr], expnt,             c_1 c_2 ...
[INPUT] Be
[INPUT] 0    0    [9    /2   ]  14630             9.2e-05 -1.7e-05
                                2191              0.000713 -0.00013
                                498.2             0.003735 -0.000679
                                140.9             0.015468 -0.002857
                                45.86             0.052874 -0.009813
                                16.47             0.145694 -0.028609
                                6.319             0.302681 -0.06376
                                2.535             0.404936 -0.117231
                                1.035             0.222387 -0.121202
[INPUT] 0    0    [1    /1   ]  0.2528               1
[INPUT] 0    0    [1    /1   ]  0.1052               1
[INPUT] 0    0    [1    /1   ]  0.04261              1
[INPUT] 1    0    [3    /1   ]  14.03             0.004099
                                3.168             0.025626
                                0.9024            0.103768
[INPUT] 1    0    [1    /1   ]  0.3036               1
[INPUT] 1    0    [1    /1   ]  0.113                1
[INPUT] 1    0    [1    /1   ]  0.04286              1
[INPUT] 2    0    [1    /1   ]  1.072                1
[INPUT] 2    0    [1    /1   ]  0.441                1
[INPUT] 2    0    [1    /1   ]  0.1811               1
[INPUT] 3    0    [1    /1   ]  0.481                1
[INPUT] 3    0    [1    /1   ]  0.255                1
[INPUT] 4    0    [1    /1   ]  0.415                1

nuclear repulsion = 3.45077640323121
point group symmetry = Dooh
num. orbitals of irrep A1g = 15
num. orbitals of irrep E1gx = 10
num. orbitals of irrep E1gy = 10
num. orbitals of irrep A1u = 15
num. orbitals of irrep E1uy = 10
num. orbitals of irrep E1ux = 10
num. orbitals of irrep E2gx = 6
num. orbitals of irrep E2gy = 6
num. orbitals of irrep E3gx = 3
num. orbitals of irrep E3gy = 3
num. orbitals of irrep E2uy = 6
num. orbitals of irrep E2ux = 6
num. orbitals of irrep E3uy = 3
num. orbitals of irrep E3ux = 3
num. orbitals of irrep E4gx = 1
num. orbitals of irrep E4gy = 1
num. orbitals of irrep E4uy = 1
num. orbitals of irrep E4ux = 1
number of shells = 28
number of NR pGTOs = 136
number of NR cGTOs = 110
basis = cc-pvqz
ecp = {}
CPU time:         0.40


******** <class 'pyscf.df.df_jk.density_fit.<locals>.DFHF'> ********
method = DFHF-SymAdaptedROKS-SymAdaptedROHF-ROHF-RHF
initial guess = minao
damping factor = 0
level_shift factor = 0.0
DIIS = <class 'pyscf.scf.diis.CDIIS'>
diis_start_cycle = 1
diis_space = 8
SCF conv_tol = 1e-09
SCF conv_tol_grad = None
SCF max_cycles = 200
direct_scf = True
direct_scf_tol = 1e-13
chkfile to save SCF result = /home/abenali/Work/WorkShop/qmcpack_workshop_2021/qmc_workshop_2021/week4_molecules/Be2/01_qmc_SD/runs/Be2/cc-pvqz/PBE/SCF/tmpyk3f5apo
max_memory 4000 MB (current use 113 MB)
num. doubly occ = 4  num. singly occ = 0
XC library pyscf.dft.libxc version 5.1.5
    S. Lehtola, C. Steigemann, M. J. Oliveira, and M. A. Marques, SoftwareX 7, 1 (2018)
XC functionals = PBE
    J. P. Perdew, K. Burke, and M. Ernzerhof, Phys. Rev. Lett. 77, 3865 (1996)
    J. P. Perdew, K. Burke, and M. Ernzerhof, Phys. Rev. Lett. 78, 1396 (1997)
    J. P. Perdew, K. Burke, and M. Ernzerhof, Phys. Rev. Lett. 77, 3865 (1996)
    J. P. Perdew, K. Burke, and M. Ernzerhof, Phys. Rev. Lett. 78, 1396 (1997)
radial grids: 
    Treutler-Ahlrichs [JCP 102, 346 (1995); DOI:10.1063/1.469408] (M4) radial grids
    
becke partition: Becke, JCP 88, 2547 (1988); DOI:10.1063/1.454033
pruning grids: <function nwchem_prune at 0x7f287961dd40>
grids dens level: 3
symmetrized grids: True
atomic radii adjust function: <function treutler_atomic_radii_adjust at 0x7f2879626200>
small_rho_cutoff = 1e-07
Freeze 0 electrons in irreps []
    8 free electrons in irreps A1g E1gx E1gy A1u E1uy E1ux E2gx E2gy E3gx E3gy E2uy E2ux E3uy E3ux E4gx E4gy E4uy E4ux
Set gradient conv threshold to 3.16228e-05
atom Be rad-grids = 75, ang-grids = [ 50  50  50  50  50  50  50  50  50  50  50  50  50  50  50  50  50  50
  50  50  50  50  50  50  50  50  86  86  86  86  86  86  86  86  86  86
  86 266 266 266 266 266 266 266 266 302 302 302 302 302 302 302 302 302
 302 302 302 302 302 302 302 302 302 302 302 302 266 266 266 266 266 266
 266 266 266]
tot grids = 26220
Drop grids 790
    CPU time for setting up grids      0.06 sec, wall time      0.12 sec
nelec by numeric integration = [3.99999276 3.99999276]
    CPU time for vxc      0.28 sec, wall time      0.72 sec
Even tempered Gaussians are generated as DF auxbasis for  Be
  ETB auxbasis for Be  [[0, [698.12224, 1]], [0, [349.06112, 1]], [0, [174.53056, 1]], [0, [87.26528, 1]], [0, [43.63264, 1]], [0, [21.81632, 1]], [0, [10.90816, 1]], [0, [5.45408, 1]], [0, [2.72704, 1]], [0, [1.36352, 1]], [0, [0.68176, 1]], [0, [0.34088, 1]], [0, [0.17044, 1]], [0, [0.08522, 1]], [1, [87.5209055988248, 1]], [1, [43.7604527994124, 1]], [1, [21.8802263997062, 1]], [1, [10.9401131998531, 1]], [1, [5.47005659992655, 1]], [1, [2.735028299963275, 1]], [1, [1.3675141499816375, 1]], [1, [0.6837570749908187, 1]], [1, [0.34187853749540936, 1]], [1, [0.17093926874770468, 1]], [1, [0.08546963437385234, 1]], [2, [21.94432, 1]], [2, [10.97216, 1]], [2, [5.48608, 1]], [2, [2.74304, 1]], [2, [1.37152, 1]], [2, [0.68576, 1]], [2, [0.34288, 1]], [2, [0.17144, 1]], [2, [0.08572, 1]]]
num shells = 68, num cGTOs = 184
    CPU time for df-vj      0.11 sec, wall time      0.25 sec
E1 = -45.157402197680355  Ecoul = 17.91016394272344  Exc = -5.514288704251204
init E= -29.3107505559769
cond(S) = 8315.302278583578
    CPU time for initialize scf      0.47 sec, wall time      1.15 sec
HOMO (A1u) = -0.163817049342973  LUMO (E1uy) = -0.10348302751629
double occ irrep_nelec = [2, 0, 0, 2, 0, 0, 0, 0, 0, 0, 0, 0, 0, 0, 0, 0, 0, 0]
single occ irrep_nelec = [0, 0, 0, 0, 0, 0, 0, 0, 0, 0, 0, 0, 0, 0, 0, 0, 0, 0]
  Roothaan mo_energy =
[-3.87444847 -0.26354153 -0.10069682  0.05504058  0.08330971  0.4001148
  0.53214247  0.56820518  1.00569217  1.51270465  1.9726569   2.15347171
  2.85551486  4.02311627  7.11508728 -0.03274251  0.11160084  0.47686687
  0.55707304  1.19390713  1.48230631  2.0380243   2.47259446  2.83669876
  4.09522201 -0.03274251  0.11160084  0.47686687  0.55707304  1.19390713
  1.48230631  2.0380243   2.47259446  2.83669876  4.09522201 -3.8743993
 -0.16381705  0.04243585  0.11001662  0.16498623  0.41405746  0.58845993
  0.79392681  1.05347232  1.57709084  2.13070057  2.57356417  2.85705708
  4.4124264   6.76233999 -0.10348303  0.08083466  0.28287211  0.49386943
  0.81332785  1.31816996  1.86154629  2.08039903  2.53101792  3.94898876
 -0.10348303  0.08083466  0.28287211  0.49386943  0.81332785  1.31816996
  1.86154629  2.08039903  2.53101792  3.94898876  0.27183233  0.7062157
  1.28766825  1.76997896  2.28538318  3.91003512  0.27183268  0.70621594
  1.28767205  1.76997921  2.28538482  3.9100213   0.81755951  2.03154677
  2.31513859  0.81755951  2.03154677  2.31513859  0.36550807  0.96494069
  1.34702888  2.26514385  2.48490189  3.9541856   0.36550773  0.96494039
  1.34702512  2.26514269  2.48490283  3.95419883  0.72666919  1.78781891
  2.26216099  0.72666919  1.78781891  2.26216099  1.87704545  1.87706909
  1.91787845  1.91785427]
nelec by numeric integration = [4.0000001 4.0000001]
    CPU time for vxc      0.20 sec, wall time      0.53 sec
    CPU time for df-vj      0.07 sec, wall time      0.20 sec
E1 = -45.06375150613107  Ecoul = 17.818370569926255  Exc = -5.479082939042883
cycle= 1 E= -29.2736874720165  delta_E= 0.0371  |g|= 0.0266  |ddm|= 0.581
    CPU time for cycle= 1      0.29 sec, wall time      0.77 sec
HOMO (A1u) = -0.166881338015176  LUMO (E1ux) = -0.1048443036898
double occ irrep_nelec = [2, 0, 0, 2, 0, 0, 0, 0, 0, 0, 0, 0, 0, 0, 0, 0, 0, 0]
single occ irrep_nelec = [0, 0, 0, 0, 0, 0, 0, 0, 0, 0, 0, 0, 0, 0, 0, 0, 0, 0]
  Roothaan mo_energy =
[-3.8935502  -0.2629048  -0.10280843  0.05280768  0.0802486   0.39918022
  0.52687206  0.56729541  1.00515411  1.51287989  1.97168777  2.15166298
  2.8543213   4.01809442  7.10127359 -0.03560374  0.1082473   0.47339418
  0.55505171  1.19225692  1.48146004  2.03134121  2.47380769  2.83520827
  4.09067062 -0.03560374  0.1082473   0.47339418  0.55505171  1.19225692
  1.48146004  2.03134121  2.47380769  2.83520827  4.09067062 -3.893502
 -0.16688134  0.03918392  0.10787236  0.16290179  0.41045864  0.58558888
  0.79178993  1.05133104  1.57626326  2.13046227  2.5748116   2.85346303
  4.40817121  6.74848551 -0.1048443   0.07888278  0.28013977  0.49124358
  0.81124599  1.31829683  1.86045115  2.07431509  2.53098115  3.94405996
 -0.1048443   0.07888278  0.28013977  0.49124358  0.81124599  1.31829683
  1.86045115  2.07431509  2.53098115  3.94405996  0.27042706  0.7031874
  1.28737685  1.76902934  2.28530141  3.90366273  0.27042733  0.7031877
  1.28738007  1.76902981  2.28530369  3.90365227  0.81528519  2.03129286
  2.31417845  0.81528519  2.03129286  2.31417845  0.36275678  0.9630305
  1.34628582  2.26613996  2.48388616  3.94771782  0.36275651  0.96302991
  1.34628254  2.26613859  2.48388529  3.94772763  0.72500425  1.78617371
  2.26199214  0.72500425  1.78617371  2.26199214  1.8758205   1.87584174
  1.91661972  1.91659798]
nelec by numeric integration = [4.00000009 4.00000009]
    CPU time for vxc      0.21 sec, wall time      0.52 sec
    CPU time for df-vj      0.08 sec, wall time      0.17 sec
E1 = -45.045431376269896  Ecoul = 17.80244121198331  Exc = -5.4815248866711315
cycle= 2 E= -29.2737386477265  delta_E= -5.12e-05  |g|= 0.00865  |ddm|= 0.0394
    CPU time for cycle= 2      0.30 sec, wall time      0.72 sec
HOMO (A1u) = -0.167404185029966  LUMO (E1uy) = -0.106295843209292
double occ irrep_nelec = [2, 0, 0, 2, 0, 0, 0, 0, 0, 0, 0, 0, 0, 0, 0, 0, 0, 0]
single occ irrep_nelec = [0, 0, 0, 0, 0, 0, 0, 0, 0, 0, 0, 0, 0, 0, 0, 0, 0, 0]
  Roothaan mo_energy =
[-3.89441986 -0.26539887 -0.1037445   0.05226933  0.07977562  0.39814614
  0.52654387  0.56560835  1.00323245  1.51133231  1.96959083  2.15006342
  2.85307562  4.01642189  7.10007915 -0.03649762  0.10771853  0.47257766
  0.55412206  1.19101326  1.48041584  2.02994986  2.47160962  2.83432052
  4.08881778 -0.03649762  0.10771853  0.47257766  0.55412206  1.19101326
  1.48041584  2.02994986  2.47160962  2.83432052  4.08881778 -3.89437157
 -0.16740419  0.03881242  0.10733527  0.16185599  0.40981019  0.58458759
  0.79147613  1.0500674   1.57513073  2.12911635  2.57299922  2.85182653
  4.40628177  6.74720852 -0.10629584  0.07812885  0.27893958  0.49000503
  0.8097808   1.31680232  1.85826313  2.07275243  2.52979124  3.94230601
 -0.10629584  0.07812885  0.27893958  0.49000503  0.8097808   1.31680232
  1.85826313  2.07275243  2.52979124  3.94230601  0.26907859  0.7018474
  1.28588212  1.76719754  2.28385847  3.90198568  0.26907884  0.70184768
  1.2858853   1.76719802  2.28386072  3.90197519  0.81429086  2.02970541
  2.31289697  0.81429086  2.02970541  2.31289697  0.36186263  0.96196201
  1.34498668  2.26385887  2.48309255  3.94606344  0.36186237  0.96196144
  1.34498346  2.26385749  2.48309177  3.9460733   0.72378001  1.78468033
  2.26046995  0.72378001  1.78468033  2.26046995  1.87450826  1.87452946
  1.91534052  1.91531882]
nelec by numeric integration = [4.0000001 4.0000001]
    CPU time for vxc      0.21 sec, wall time      0.42 sec
    CPU time for df-vj      0.08 sec, wall time      0.19 sec
E1 = -45.059527631468185  Ecoul = 17.81780114720773  Exc = -5.482835939608972
cycle= 3 E= -29.2737860206382  delta_E= -4.74e-05  |g|= 0.00179  |ddm|= 0.0133
    CPU time for cycle= 3      0.31 sec, wall time      0.65 sec
HOMO (A1u) = -0.167276849482308  LUMO (E1ux) = -0.106052479890598
double occ irrep_nelec = [2, 0, 0, 2, 0, 0, 0, 0, 0, 0, 0, 0, 0, 0, 0, 0, 0, 0]
single occ irrep_nelec = [0, 0, 0, 0, 0, 0, 0, 0, 0, 0, 0, 0, 0, 0, 0, 0, 0, 0]
  Roothaan mo_energy =
[-3.89308507 -0.26500065 -0.10358607  0.05237454  0.07984615  0.39837072
  0.52665589  0.56591902  1.00355541  1.51162963  1.97003948  2.15041617
  2.85344353  4.01685324  7.10111811 -0.03635169  0.10781396  0.4726954
  0.55435075  1.19120884  1.48059871  2.03048881  2.47194314  2.83452386
  4.08924564 -0.03635169  0.10781396  0.4726954   0.55435075  1.19120884
  1.48059871  2.03048881  2.47194314  2.83452386  4.08924564 -3.8930367
 -0.16727685  0.03889787  0.107491    0.16205311  0.4099618   0.58480096
  0.79168308  1.0502918   1.57536695  2.12946418  2.57331443  2.85231515
  4.40674813  6.7482871  -0.10605248  0.07825379  0.2790617   0.4902464
  0.80998808  1.31703232  1.85858627  2.07327331  2.53004266  3.94271177
 -0.10605248  0.07825379  0.2790617   0.4902464   0.80998808  1.31703232
  1.85858627  2.07327331  2.53004266  3.94271177  0.26929632  0.70196247
  1.28612558  1.76743672  2.28406577  3.90241721  0.26929657  0.70196275
  1.28612876  1.7674372   2.28406803  3.90240673  0.81445328  2.02993882
  2.31309784  0.81445328  2.02993882  2.31309784  0.36198707  0.96212089
  1.34520133  2.26418887  2.48323058  3.94649258  0.36198681  0.96212034
  1.34519812  2.26418748  2.48322982  3.94650243  0.72398458  1.78484054
  2.26072493  0.72398458  1.78484054  2.26072493  1.87473288  1.87475405
  1.91556148  1.91553982]
nelec by numeric integration = [4.0000001 4.0000001]
    CPU time for vxc      0.20 sec, wall time      0.36 sec
    CPU time for df-vj      0.08 sec, wall time      0.13 sec
E1 = -45.056566894137546  Ecoul = 17.814142336064112  Exc = -5.482139009035192
cycle= 4 E= -29.2737871638774  delta_E= -1.14e-06  |g|= 0.000376  |ddm|= 0.00251
    CPU time for cycle= 4      0.29 sec, wall time      0.52 sec
HOMO (A1u) = -0.167329512804293  LUMO (E1uy) = -0.106102312336965
double occ irrep_nelec = [2, 0, 0, 2, 0, 0, 0, 0, 0, 0, 0, 0, 0, 0, 0, 0, 0, 0]
single occ irrep_nelec = [0, 0, 0, 0, 0, 0, 0, 0, 0, 0, 0, 0, 0, 0, 0, 0, 0, 0]
  Roothaan mo_energy =
[-3.8933966  -0.26506912 -0.10364009  0.0523494   0.07982228  0.39833647
  0.52659849  0.56586358  1.00349108  1.51157904  1.96993943  2.15032732
  2.85337665  4.01674458  7.1008742  -0.03640042  0.10778632  0.47264353
  0.55430753  1.19116151  1.48054964  2.03036726  2.47187923  2.83447101
  4.08913512 -0.03640042  0.10778632  0.47264353  0.55430753  1.19116151
  1.48054964  2.03036726  2.47187923  2.83447101  4.08913512 -3.89334825
 -0.16732951  0.0388739   0.10745888  0.16201595  0.40991531  0.58474517
  0.7916549   1.05023355  1.57531614  2.12940547  2.57325436  2.85219167
  4.40663798  6.74803856 -0.10610231  0.07822694  0.27900844  0.49018749
  0.80993887  1.31697564  1.8585097   2.07315666  2.52998969  3.94260158
 -0.10610231  0.07822694  0.27900844  0.49018749  0.80993887  1.31697564
  1.8585097   2.07315666  2.52998969  3.94260158  0.26925448  0.70190745
  1.28607292  1.76737923  2.28400758  3.90230879  0.26925473  0.70190772
  1.28607609  1.76737971  2.28400983  3.90229832  0.81441293  2.02988587
  2.31304604  0.81441293  2.02988587  2.31304604  0.36194449  0.9620761
  1.34515007  2.26412883  2.48318084  3.94638432  0.36194423  0.96207555
  1.34514687  2.26412745  2.48318008  3.94639416  0.72394409  1.78478186
  2.26067393  0.72394409  1.78478186  2.26067393  1.87468766  1.87470882
  1.91551653  1.91549487]
nelec by numeric integration = [4.0000001 4.0000001]
    CPU time for vxc      0.19 sec, wall time      0.33 sec
    CPU time for df-vj      0.07 sec, wall time      0.11 sec
E1 = -45.05700026813264  Ecoul = 17.814708261520757  Exc = -5.482271580116884
cycle= 5 E= -29.2737871834976  delta_E= -1.96e-08  |g|= 1.91e-05  |ddm|= 0.000409
    CPU time for cycle= 5      0.27 sec, wall time      0.47 sec
HOMO (A1u) = -0.16731969830709  LUMO (E1ux) = -0.106094583466661
double occ irrep_nelec = [2, 0, 0, 2, 0, 0, 0, 0, 0, 0, 0, 0, 0, 0, 0, 0, 0, 0]
single occ irrep_nelec = [0, 0, 0, 0, 0, 0, 0, 0, 0, 0, 0, 0, 0, 0, 0, 0, 0, 0]
  Roothaan mo_energy =
[-3.89337108 -0.26506058 -0.10363031  0.05235396  0.07982713  0.39834447
  0.52660903  0.56587236  1.0035011   1.51158845  1.96995253  2.15033951
  2.85338851  4.01676054  7.10089516 -0.03639218  0.10779182  0.47265225
  0.5543158   1.19116999  1.48055845  2.03038261  2.4718887   2.83448082
  4.08915066 -0.03639218  0.10779182  0.47265225  0.5543158   1.19116999
  1.48055845  2.03038261  2.4718887   2.83448082  4.08915066 -3.89332273
 -0.1673197   0.03887951  0.10746625  0.16202208  0.40992438  0.58475412
  0.79166375  1.05024245  1.57532682  2.12941607  2.57326431  2.85220715
  4.4066538   6.74806009 -0.10609458  0.07823149  0.27901641  0.49019661
  0.80994712  1.31698489  1.85851952  2.07317141  2.5299998   3.94261712
 -0.10609458  0.07823149  0.27901641  0.49019661  0.80994712  1.31698489
  1.85851952  2.07317141  2.5299998   3.94261712  0.26926145  0.70191492
  1.28608179  1.76738745  2.28401676  3.90232412  0.2692617   0.7019152
  1.28608497  1.76738793  2.28401902  3.90231365  0.81442023  2.02989379
  2.31305516  0.81442023  2.02989379  2.31305516  0.36195188  0.96208371
  1.345159    2.26413708  2.4831901   3.94639966  0.36195162  0.96208316
  1.3451558   2.26413569  2.48318934  3.9464095   0.7239512   1.78478987
  2.26068287  0.7239512   1.78478987  2.26068287  1.87469586  1.87471702
  1.91552476  1.9155031 ]
nelec by numeric integration = [4.0000001 4.0000001]
    CPU time for vxc      0.18 sec, wall time      0.29 sec
    CPU time for df-vj      0.07 sec, wall time      0.12 sec
E1 = -45.05697191578776  Ecoul = 17.81467145339217  Exc = -5.48226312445866
cycle= 6 E= -29.273787183623  delta_E= -1.25e-10  |g|= 1.52e-06  |ddm|= 5.13e-05
    CPU time for cycle= 6      0.26 sec, wall time      0.43 sec
HOMO (A1u) = -0.167320514550518  LUMO (E1uy) = -0.106095550368888
double occ irrep_nelec = [2, 0, 0, 2, 0, 0, 0, 0, 0, 0, 0, 0, 0, 0, 0, 0, 0, 0]
single occ irrep_nelec = [0, 0, 0, 0, 0, 0, 0, 0, 0, 0, 0, 0, 0, 0, 0, 0, 0, 0]
  Roothaan mo_energy =
[-3.89337258 -0.2650619  -0.10363123  0.05235343  0.07982665  0.3983437
  0.52660825  0.56587134  1.00349993  1.51158735  1.9699511   2.15033824
  2.85338738  4.01675908  7.10089375 -0.03639302  0.10779128  0.47265142
  0.55431492  1.19116909  1.48055745  2.03038126  2.47188737  2.83447986
  4.08914911 -0.03639302  0.10779128  0.47265142  0.55431492  1.19116909
  1.48055745  2.03038126  2.47188737  2.83447986  4.08914911 -3.89332423
 -0.16732051  0.03887905  0.10746557  0.16202133  0.40992364  0.58475321
  0.79166316  1.05024148  1.57532579  2.12941497  2.57326306  2.8522057
  4.40665228  6.74805865 -0.10609555  0.0782309   0.27901553  0.4901956
  0.8099462   1.31698375  1.85851824  2.07317006  2.5299987   3.94261561
 -0.10609555  0.0782309   0.27901553  0.4901956   0.8099462   1.31698375
  1.85851824  2.07317006  2.5299987   3.94261561  0.26926057  0.70191403
  1.28608072  1.76738636  2.28401562  3.90232265  0.26926082  0.70191431
  1.28608389  1.76738684  2.28401788  3.90231218  0.81441941  2.02989271
  2.31305415  0.81441941  2.02989271  2.31305415  0.36195108  0.96208285
  1.34515797  2.2641358   2.48318914  3.9463982   0.36195083  0.9620823
  1.34515477  2.26413441  2.48318838  3.94640804  0.72395034  1.78478884
  2.26068181  0.72395034  1.78478884  2.26068181  1.87469495  1.87471611
  1.91552386  1.9155022 ]
nelec by numeric integration = [4.0000001 4.0000001]
    CPU time for vxc      0.20 sec, wall time      0.32 sec
    CPU time for df-vj      0.09 sec, wall time      0.15 sec
E1 = -45.05697786871379  Ecoul = 17.814678207579657  Exc = -5.482263925720546
Extra cycle  E= -29.2737871836235  delta_E= -4.19e-13  |g|= 1.23e-06  |ddm|= 4.36e-06
    CPU time for scf_cycle      2.49 sec, wall time      5.21 sec
    CPU time for SCF      2.49 sec, wall time      5.21 sec
converged SCF energy = -29.2737871836235
Using Python 3.x
Wavefunction successfully saved to QMCPACK HDF5 Format
Use: "convert4qmc -pyscf  scf.h5" to generate QMCPACK input files
