#INFO: **** input file is /home/abenali/Work/WorkShop/qmcpack_workshop_2021/qmc_workshop_2021/week4_molecules/03_qmc_ccECP/runs/O2/Dist_2.8/SCF/scf.py ****

#! /usr/bin/env python3

import numpy as np
from numpy import array

### generated pyscfimport text ###
from pyscf import df, scf, dft
### end generated pyscfimport text ###





### generated system text ###
from pyscf import gto as gto_loc
mol = gto_loc.Mole()
mol.verbose  = 5
mol.atom     = '''
               O    0.00000000   0.00000000   0.00000000
               O    0.00000000   0.00000000   2.80000000
               '''
mol.basis    = 'ccecp-ccpvtz'
mol.unit     = 'A'
mol.ecp      = 'ccecp'
mol.charge   = 0
mol.spin     = 2
mol.symmetry = False
mol.build()
### end generated system text ###




### generated calculation text ###
mf = scf.ROKS(mol).density_fit()
mf.max_cycle=200
mf.level_shift=0.0
mf.xc          = 'SCAN'
mf.tol         = '1e-10'
e_scf = mf.kernel()
### end generated calculation text ###



### generated conversion text ###
from PyscfToQmcpack import savetoqmcpack
savetoqmcpack(mol,mf,'scf')
### end generated conversion text ###

#INFO: ******************** input file end ********************


System: uname_result(system='Linux', node='abenali', release='5.11.0-38-generic', version='#42~20.04.1-Ubuntu SMP Tue Sep 28 20:41:07 UTC 2021', machine='x86_64', processor='x86_64')  Threads 1
Python 3.7.11 (default, Sep  9 2021, 02:06:38) 
[GCC 9.3.0]
numpy 1.20.3  scipy 1.6.2
Date: Mon Oct 25 21:21:03 2021
PySCF version 2.0.0a
PySCF path  /home/abenali/Work/src/pyscf
GIT HEAD (branch master) 3e8ba375fd4229f000289589fd02193633380853

[CONFIG] conf_file None
[INPUT] verbose = 5
[INPUT] max_memory = 4000 
[INPUT] num. atoms = 2
[INPUT] num. electrons = 12
[INPUT] charge = 0
[INPUT] spin (= nelec alpha-beta = 2S) = 2
[INPUT] symmetry False subgroup None
[INPUT] Mole.unit = A
[INPUT]  1 O      0.000000000000   0.000000000000   0.000000000000 AA    0.000000000000   0.000000000000   0.000000000000 Bohr
[INPUT]  2 O      0.000000000000   0.000000000000   2.800000000000 AA    0.000000000000   0.000000000000   5.291233148782 Bohr
[INPUT] ---------------- BASIS SET ---------------- 
[INPUT] l, kappa, [nprim/nctr], expnt,             c_1 c_2 ...
[INPUT] O
[INPUT] 0    0    [9    /1   ]  54.775216         -0.0012444
                                25.616801         0.010733
                                11.980245         0.0018889
                                6.992317          -0.1742537
                                2.620277          0.0017622
                                1.225429          0.3161846
                                0.577797          0.4512023
                                0.268022          0.3121534
                                0.125346          0.0511167
[INPUT] 0    0    [1    /1   ]  1.686633             1
[INPUT] 0    0    [1    /1   ]  0.237997             1
[INPUT] 1    0    [9    /1   ]  22.217266         0.0104866
                                10.74755          0.0366435
                                5.315785          0.0803674
                                2.660761          0.162701
                                1.331816          0.2377791
                                0.678626          0.2811422
                                0.333673          0.2643189
                                0.167017          0.1466014
                                0.083598          0.0458145
[INPUT] 1    0    [1    /1   ]  0.600621             1
[INPUT] 1    0    [1    /1   ]  0.184696             1
[INPUT] 2    0    [1    /1   ]  2.404278             1
[INPUT] 2    0    [1    /1   ]  0.66934              1
[INPUT] 3    0    [1    /1   ]  1.423104             1

nuclear repulsion = 6.80370699754286
number of shells = 18
number of NR pGTOs = 122
number of NR cGTOs = 58
basis = ccecp-ccpvtz
ecp = ccecp
CPU time:         0.27


******** <class 'pyscf.df.df_jk.density_fit.<locals>.DFHF'> ********
method = DFHF-ROKS-ROHF-RHF
initial guess = minao
damping factor = 0
level_shift factor = 0.0
DIIS = <class 'pyscf.scf.diis.CDIIS'>
diis_start_cycle = 1
diis_space = 8
SCF conv_tol = 1e-09
SCF conv_tol_grad = None
SCF max_cycles = 200
direct_scf = True
direct_scf_tol = 1e-13
chkfile to save SCF result = /home/abenali/Work/WorkShop/qmcpack_workshop_2021/qmc_workshop_2021/week4_molecules/03_qmc_ccECP/runs/O2/Dist_2.8/SCF/tmp9b8hbztu
max_memory 4000 MB (current use 107 MB)
num. doubly occ = 5  num. singly occ = 2
XC library pyscf.dft.libxc version 5.1.5
    S. Lehtola, C. Steigemann, M. J. Oliveira, and M. A. Marques, SoftwareX 7, 1 (2018)
XC functionals = SCAN
    J. Sun, A. Ruzsinszky, and J. P. Perdew, Phys. Rev. Lett. 115, 036402 (2015)
    J. Sun, A. Ruzsinszky, and J. P. Perdew, Phys. Rev. Lett. 115, 036402 (2015)
radial grids: 
    Treutler-Ahlrichs [JCP 102, 346 (1995); DOI:10.1063/1.469408] (M4) radial grids
    
becke partition: Becke, JCP 88, 2547 (1988); DOI:10.1063/1.454033
pruning grids: <function nwchem_prune at 0x7ff1b3ca8dd0>
grids dens level: 3
symmetrized grids: False
atomic radii adjust function: <function treutler_atomic_radii_adjust at 0x7ff1b3cb1290>
small_rho_cutoff = 1e-07
Set gradient conv threshold to 3.16228e-05
atom O rad-grids = 75, ang-grids = [ 50  50  50  50  50  50  50  50  50  50  50  50  50  50  50  50  50  50
  50  50  50  50  86  86  86  86  86  86  86  86  86 266 266 266 266 266
 266 266 302 302 302 302 302 302 302 302 302 302 302 302 302 302 302 302
 302 302 302 266 266 266 266 266 266 266 266 266 266 266 266 266 266 266
 266 266 266]
tot grids = 28524
Drop grids 1962
    CPU time for setting up grids      0.03 sec, wall time      0.03 sec
nelec by numeric integration = [5.99999848 5.99999848]
    CPU time for vxc      0.38 sec, wall time      0.38 sec
Even tempered Gaussians are generated as DF auxbasis for  O
  ETB auxbasis for O  [[0, [64.177152, 1]], [0, [32.088576, 1]], [0, [16.044288, 1]], [0, [8.022144, 1]], [0, [4.011072, 1]], [0, [2.005536, 1]], [0, [1.002768, 1]], [0, [0.501384, 1]], [0, [0.250692, 1]], [1, [52.41108427692326, 1]], [1, [26.20554213846163, 1]], [1, [13.102771069230815, 1]], [1, [6.551385534615408, 1]], [1, [3.275692767307704, 1]], [1, [1.637846383653852, 1]], [1, [0.818923191826926, 1]], [1, [0.409461595913463, 1]], [1, [0.2047307979567315, 1]], [2, [42.802176, 1]], [2, [21.401088, 1]], [2, [10.700544, 1]], [2, [5.350272, 1]], [2, [2.675136, 1]], [2, [1.337568, 1]], [2, [0.668784, 1]], [2, [0.334392, 1]], [2, [0.167196, 1]], [3, [7.569571782318998, 1]], [3, [3.784785891159499, 1]], [3, [1.8923929455797495, 1]], [3, [0.9461964727898747, 1]], [3, [0.47309823639493737, 1]], [4, [5.35472, 1]], [4, [2.67736, 1]], [4, [1.33868, 1]]]
num shells = 70, num cGTOs = 286
    CPU time for df-vj      0.05 sec, wall time      0.05 sec
E1 = -65.89008341057385  Ecoul = 33.940936725726765  Exc = -6.385020015477637
init E= -31.5304597027819
cond(S) = 86.07966263524534
    CPU time for initialize scf      0.52 sec, wall time      0.52 sec
  HOMO = -0.353770780503611  LUMO = -0.340350050237797
                  Roothaan           | alpha              | beta
  Highest 2-occ = -0.360170315207789 | -0.360170315207789 | -0.360170315207789
  Lowest 0-occ =  -0.340350050237797 | -0.340350050237798 | -0.340350050237798
  1-occ =         -0.353770780503612 | -0.353770780503612 | -0.353770780503612
  1-occ =         -0.353770780503611 | -0.353770780503612 | -0.353770780503612
  Roothaan mo_energy =
[-0.96755387 -0.96136943 -0.37235075 -0.36017032 -0.36017032 -0.35377078
 -0.35377078 -0.34035005  0.41991251  0.42439077  0.42439077  0.50694191
  0.50694191  0.52201226  0.75536683  0.94923681  1.44914168  1.46360293
  1.46360293  1.46962029  1.46972748  1.47058443  1.47069191  1.47906276
  1.47906276  1.55770488  2.84770154  2.84770154  2.92395921  2.92395921
  2.94189091  2.95040695  5.14740425  5.14740425  5.14756756  5.14756756
  5.14781263  5.14781712  5.1483772   5.1483772   5.14838337  5.14838337
  5.14847022  5.14847477  5.14866668  5.1515831   6.3793949   6.39166531
  6.39166531  6.39556344  6.39557718  6.3962034   6.39621736  6.40259622
  6.40259622  6.44950608 14.73112861 15.27392802]
nelec by numeric integration = [6.99999812 4.99999839]
    CPU time for vxc      0.28 sec, wall time      0.28 sec
    CPU time for df-vj      0.05 sec, wall time      0.05 sec
E1 = -66.10143461950892  Ecoul = 34.178988402614536  Exc = -6.496422322618111
cycle= 1 E= -31.6151615419696  delta_E= -0.0847  |g|= 0.0755  |ddm|= 1.72
    CPU time for cycle= 1      0.33 sec, wall time      0.33 sec
  HOMO = -0.330038030787715  LUMO = -0.320845266427278
                  Roothaan           | alpha              | beta
  Highest 2-occ = -0.337137689934309 | -0.365002464344685 | -0.288926265352435
  Lowest 0-occ =  -0.320845266427278 |  -0.33078740285039 | -0.310903130004166
  1-occ =         -0.330038030787717 |  -0.37989322137006 | -0.279311983690978
  1-occ =         -0.330038030787715 | -0.379893221370059 | -0.279311983690977
  Roothaan mo_energy =
[-0.94424958 -0.9373633  -0.35640947 -0.33713769 -0.33713769 -0.33003803
 -0.33003803 -0.32084527  0.41890022  0.43417256  0.43417256  0.51795954
  0.51795954  0.52815606  0.76678751  0.96236202  1.45692968  1.46789353
  1.46789353  1.48387387  1.48387387  1.48622163  1.48632086  1.48720726
  1.48730667  1.56647384  2.87043282  2.87043282  2.94676985  2.94676985
  2.96929931  2.97506384  5.14156014  5.14156014  5.14190169  5.14190169
  5.15538192  5.15637776  5.1563822   5.15706915  5.15707364  5.15860285
  5.16495457  5.16495457  5.1649547   5.1649547   6.39651853  6.40695173
  6.40695173  6.41798869  6.41798869  6.42173634  6.4223806   6.42252426
  6.42316868  6.46711114 14.7652015  15.30797242]
nelec by numeric integration = [6.99999799 4.9999983 ]
    CPU time for vxc      0.28 sec, wall time      0.28 sec
    CPU time for df-vj      0.05 sec, wall time      0.05 sec
E1 = -65.95368666496671  Ecoul = 33.98615801184458  Exc = -6.452595147602873
cycle= 2 E= -31.6164168031821  delta_E= -0.00126  |g|= 0.0361  |ddm|= 0.134
    CPU time for cycle= 2      0.33 sec, wall time      0.33 sec
  HOMO = -0.341667019393465  LUMO = -0.331703383033448
                  Roothaan           | alpha              | beta
  Highest 2-occ = -0.348637372784392 | -0.377964967102455 | -0.302678682739447
  Lowest 0-occ =  -0.331703383033448 | -0.344563636486336 | -0.324815143686363
  1-occ =         -0.341667019393466 | -0.395889625619769 | -0.293301425923607
  1-occ =         -0.341667019393465 | -0.395889625619769 | -0.293301425923607
  Roothaan mo_energy =
[-0.95579074 -0.94901383 -0.36667358 -0.34863737 -0.34863737 -0.34166702
 -0.34166702 -0.33170338  0.4127776   0.42851987  0.42851987  0.51228587
  0.51228587  0.52266674  0.7590115   0.95528584  1.4503333   1.46072341
  1.46072341  1.47676287  1.47676287  1.47924867  1.4793525   1.48023519
  1.48033919  1.55998569  2.85773138  2.85773138  2.93398704  2.93398704
  2.95762074  2.96318263  5.13144794  5.13144794  5.13179834  5.13179834
  5.14599946  5.14689646  5.14690095  5.14758023  5.14758476  5.14923825
  5.15567497  5.15567497  5.15567509  5.15567509  6.38202193  6.39241923
  6.39241923  6.40348188  6.40348188  6.40710101  6.40774687  6.40787921
  6.40852522  6.45282767 14.74631482 15.28895922]
nelec by numeric integration = [6.99999795 4.99999828]
    CPU time for vxc      0.27 sec, wall time      0.27 sec
    CPU time for df-vj      0.05 sec, wall time      0.05 sec
E1 = -66.05949850190264  Ecoul = 34.123083954922734  Exc = -6.483921859527548
cycle= 3 E= -31.6166294089646  delta_E= -0.000213  |g|= 0.0182  |ddm|= 0.0623
    CPU time for cycle= 3      0.33 sec, wall time      0.33 sec
  HOMO = -0.337582519655121  LUMO = -0.327656116487985
                  Roothaan           | alpha              | beta
  Highest 2-occ = -0.344975953639272 | -0.368086252384412 | -0.292360566113192
  Lowest 0-occ =  -0.327656116487985 | -0.333969191845121 | -0.314115514540624
  1-occ =         -0.337582519655124 | -0.385225948972247 | -0.282582588357305
  1-occ =         -0.337582519655121 | -0.385225948972245 | -0.282582588357303
  Roothaan mo_energy =
[-0.95191478 -0.94508884 -0.36293356 -0.34497595 -0.34497595 -0.33758252
 -0.33758252 -0.32765612  0.41474193  0.4302896   0.4302896   0.51380572
  0.51380572  0.52448078  0.76153326  0.95781126  1.45261296  1.46292805
  1.46292805  1.4789787   1.4789787   1.48151576  1.48161996  1.48250296
  1.48260732  1.56236205  2.86171103  2.86171103  2.93787472  2.93787472
  2.96192394  2.96749664  5.13433037  5.13433037  5.13468291  5.13468291
  5.14908479  5.1499238   5.14992827  5.15060573  5.15061024  5.15232367
  5.15879676  5.15879676  5.15879689  5.15879689  6.38678695  6.3971574
  6.3971574   6.4082176   6.4082176   6.41195628  6.41260201  6.41264801
  6.41329389  6.45759145 14.75265684 15.29533616]
nelec by numeric integration = [6.99999796 4.99999828]
    CPU time for vxc      0.26 sec, wall time      0.26 sec
    CPU time for df-vj      0.05 sec, wall time      0.05 sec
E1 = -66.02512879395005  Ecoul = 34.07851468517979  Exc = -6.473789943377296
cycle= 4 E= -31.6166970546047  delta_E= -6.76e-05  |g|= 0.000492  |ddm|= 0.0198
    CPU time for cycle= 4      0.32 sec, wall time      0.32 sec
  HOMO = -0.337475934836355  LUMO = -0.327527422030918
                  Roothaan           | alpha              | beta
  Highest 2-occ = -0.344910285800382 |   -0.3712552775905 | -0.295726850595266
  Lowest 0-occ =  -0.327527422030918 | -0.337360319851478 |  -0.31755890313971
  1-occ =         -0.337475934836362 | -0.388718196901935 |  -0.28608457103848
  1-occ =         -0.337475934836355 | -0.388718196901936 | -0.286084571038477
  Roothaan mo_energy =
[-0.95182231 -0.94499175 -0.36283156 -0.34491029 -0.34491029 -0.33747593
 -0.33747593 -0.32752742  0.41472795  0.4303236   0.4303236   0.51382329
  0.51382329  0.52450983  0.7615719   0.95788117  1.45265225  1.46293822
  1.46293822  1.47899273  1.47899273  1.48156075  1.4816648   1.48254814
  1.48265235  1.56242057  2.86175831  2.86175831  2.93790858  2.93790858
  2.96204879  2.96762457  5.13428756  5.13428756  5.13464084  5.13464084
  5.14912842  5.14995328  5.14995949  5.15063541  5.15064165  5.15236752
  5.1588485   5.1588485   5.15885273  5.15885273  6.38680994  6.3972364
  6.3972364   6.40829783  6.40829783  6.41205118  6.41269699  6.41272971
  6.41337567  6.45762308 14.75280125 15.29548291]
nelec by numeric integration = [6.99999796 4.99999828]
    CPU time for vxc      0.27 sec, wall time      0.27 sec
    CPU time for df-vj      0.05 sec, wall time      0.05 sec
E1 = -66.02432553519334  Ecoul = 34.07747419720162  Exc = -6.473552553247993
cycle= 5 E= -31.6166968936969  delta_E= 1.61e-07  |g|= 0.000995  |ddm|= 0.000938
    CPU time for cycle= 5      0.32 sec, wall time      0.32 sec
  HOMO = -0.337475961845028  LUMO = -0.327527391701128
                  Roothaan           | alpha              | beta
  Highest 2-occ = -0.344910292697008 | -0.371322883387898 | -0.295804895645951
  Lowest 0-occ =  -0.327527391701128 | -0.337430953890493 | -0.317633500011455
  1-occ =          -0.33747596184504 | -0.388803107283876 | -0.286165306915122
  1-occ =         -0.337475961845028 | -0.388803107282342 | -0.286165306913927
  Roothaan mo_energy =
[-0.9518223  -0.94499174 -0.36283154 -0.34491029 -0.34491029 -0.33747596
 -0.33747596 -0.32752739  0.41472802  0.43032363  0.43032363  0.51382332
  0.51382332  0.52450975  0.76157185  0.95788125  1.45265227  1.46293821
  1.46293821  1.47899274  1.47899274  1.48156076  1.48166481  1.48254816
  1.48265237  1.56242062  2.86175829  2.86175829  2.93790856  2.93790856
  2.9620488   2.96762453  5.13428747  5.13428747  5.13464078  5.13464078
  5.14912843  5.14995257  5.14996014  5.1506347   5.1506423   5.15236753
  5.1588476   5.1588476   5.15885359  5.15885359  6.38680987  6.39723636
  6.39723636  6.40829779  6.40829779  6.41205115  6.41269698  6.41272967
  6.41337565  6.457623   14.75280122 15.2954829 ]
nelec by numeric integration = [6.99999796 4.99999828]
    CPU time for vxc      0.27 sec, wall time      0.27 sec
    CPU time for df-vj      0.05 sec, wall time      0.05 sec
E1 = -66.02432556275721  Ecoul = 34.077474574617  Exc = -6.4735526808499255
cycle= 6 E= -31.6166966714473  delta_E= 2.22e-07  |g|= 0.00141  |ddm|= 0.00148
    CPU time for cycle= 6      0.32 sec, wall time      0.32 sec
  HOMO = -0.33747754404827  LUMO = -0.327526416819359
                  Roothaan           | alpha              | beta
  Highest 2-occ = -0.344910780014774 | -0.371322798675586 | -0.295804556735878
  Lowest 0-occ =  -0.327526416819359 | -0.337431039546784 | -0.317633521696161
  1-occ =          -0.33747754404828 | -0.388803397216944 | -0.286165585940393
  1-occ =          -0.33747754404827 | -0.388803397184656 | -0.286165585914527
  Roothaan mo_energy =
[-0.95182209 -0.9449918  -0.36283081 -0.34491078 -0.34491078 -0.33747754
 -0.33747754 -0.32752642  0.4147309   0.43032496  0.43032496  0.51382472
  0.51382472  0.52450585  0.76156944  0.95788468  1.45265284  1.46293793
  1.46293793  1.47899272  1.47899272  1.48156111  1.48166514  1.4825485
  1.48265269  1.56242276  2.86175737  2.86175737  2.93790767  2.93790767
  2.96204867  2.96762258  5.13428399  5.13428399  5.13463738  5.13463738
  5.1491287   5.14995269  5.14995715  5.15063481  5.15063932  5.15236791
  5.15884949  5.15884949  5.15884961  5.15884961  6.38680628  6.39723431
  6.39723431  6.40829574  6.40829574  6.41204982  6.41269561  6.41272815
  6.41337409  6.45761937 14.75279972 15.29548226]
nelec by numeric integration = [6.99999796 4.99999828]
    CPU time for vxc      0.29 sec, wall time      0.29 sec
    CPU time for df-vj      0.05 sec, wall time      0.05 sec
E1 = -66.02432864026801  Ecoul = 34.07748148593076  Exc = -6.473556957834334
cycle= 7 E= -31.6166971146287  delta_E= -4.43e-07  |g|= 1.5e-05  |ddm|= 0.00087
    CPU time for cycle= 7      0.35 sec, wall time      0.35 sec
  HOMO = -0.337481196569229  LUMO = -0.327528998400893
                  Roothaan           | alpha              | beta
  Highest 2-occ = -0.344913663745016 | -0.371322364873262 | -0.295804089406737
  Lowest 0-occ =  -0.327528998400893 | -0.337430453490387 | -0.317633021952762
  1-occ =          -0.33748119656923 | -0.388802804680163 | -0.286165039065566
  1-occ =         -0.337481196569229 | -0.388802804679995 | -0.286165039065426
  Roothaan mo_energy =
[-0.95182489 -0.94499456 -0.36283328 -0.34491366 -0.34491366 -0.3374812
 -0.3374812  -0.327529    0.41472873  0.43032387  0.43032387  0.51382424
  0.51382424  0.5245051   0.76156768  0.95788262  1.4526513   1.46293602
  1.46293602  1.47899079  1.47899079  1.48155937  1.48166339  1.48254676
  1.48265094  1.56242116  2.86175426  2.86175426  2.93790484  2.93790484
  2.96204516  2.9676194   5.13428036  5.13428036  5.1346338   5.1346338
  5.14912653  5.14994974  5.14995421  5.15063187  5.15063638  5.15236569
  5.15884671  5.15884671  5.15884683  5.15884683  6.38680146  6.39723023
  6.39723023  6.40829168  6.40829168  6.41204595  6.41269174  6.41272429
  6.41337023  6.45761458 14.75279506 15.29547755]
nelec by numeric integration = [6.99999796 4.99999828]
    CPU time for vxc      0.29 sec, wall time      0.29 sec
    CPU time for df-vj      0.05 sec, wall time      0.05 sec
E1 = -66.0243540816506  Ecoul = 34.07751389125986  Exc = -6.4735639218269085
cycle= 8 E= -31.6166971146748  delta_E= -4.61e-11  |g|= 6.97e-07  |ddm|= 1.48e-05
    CPU time for cycle= 8      0.35 sec, wall time      0.35 sec
  HOMO = -0.33748139107644  LUMO = -0.32752919965131
                  Roothaan           | alpha              | beta
  Highest 2-occ = -0.344913829732579 | -0.371319982664369 | -0.295801654458401
  Lowest 0-occ =   -0.32752919965131 | -0.337427906465255 | -0.317630492837362
  1-occ =         -0.337481391077928 | -0.388800252418553 | -0.286162525216386
  1-occ =          -0.33748139107644 |  -0.38880025241886 | -0.286162525215405
  Roothaan mo_energy =
[-0.95182506 -0.94499474 -0.36283346 -0.34491383 -0.34491383 -0.33748139
 -0.33748139 -0.3275292   0.41472865  0.43032379  0.43032379  0.51382417
  0.51382417  0.52450503  0.76156757  0.95788249  1.45265121  1.46293592
  1.46293592  1.47899069  1.47899069  1.48155927  1.48166329  1.48254666
  1.48265085  1.56242104  2.86175408  2.86175408  2.93790467  2.93790467
  2.96204489  2.96761913  5.13428021  5.13428021  5.13463364  5.13463364
  5.14912642  5.14994959  5.14995406  5.15063171  5.15063623  5.15236558
  5.15884649  5.15884649  5.15884679  5.15884679  6.38680122  6.39722997
  6.39722997  6.40829142  6.40829142  6.41204572  6.41269151  6.41272408
  6.41337002  6.45761432 14.75279472 15.29547721]
nelec by numeric integration = [6.99999796 4.99999828]
    CPU time for vxc      0.28 sec, wall time      0.28 sec
    CPU time for df-vj      0.05 sec, wall time      0.05 sec
E1 = -66.02435590890661  Ecoul = 34.077516248234765  Exc = -6.473564450635251
Extra cycle  E= -31.6166971137642  delta_E= 9.11e-10  |g|= 6.39e-05  |ddm|= 3.98e-05
    CPU time for scf_cycle      3.49 sec, wall time      3.50 sec
    CPU time for SCF      3.49 sec, wall time      3.50 sec
converged SCF energy = -31.6166971137642
Using Python 3.x
Wavefunction successfully saved to QMCPACK HDF5 Format
Use: "convert4qmc -pyscf  scf.h5" to generate QMCPACK input files
