#INFO: **** input file is /home/abenali/Work/WorkShop/qmcpack_workshop_2021/qmc_workshop_2021/week4_molecules/Be2/00_dft/runs/Be2/cc-pvtz/HF/SCF/scf.py ****

#! /usr/bin/env python3

import numpy as np
from numpy import array

### generated pyscfimport text ###
from pyscf import df, scf, dft
### end generated pyscfimport text ###





### generated system text ###
from pyscf import gto as gto_loc
mol = gto_loc.Mole()
mol.verbose  = 5
mol.atom     = '''
               Be   0.00000000   0.00000000   0.00000000
               Be   2.45360300   0.00000000   0.00000000
               '''
mol.basis    = 'cc-pvtz'
mol.unit     = 'A'
mol.charge   = 0
mol.spin     = 0
mol.symmetry = True
mol.build()
### end generated system text ###




### generated calculation text ###
mf = scf.ROHF(mol).density_fit()
mf.max_cycle=200
mf.level_shift=0.0
mf.tol         = '1e-10'
e_scf = mf.kernel()
### end generated calculation text ###



### generated conversion text ###
from PyscfToQmcpack import savetoqmcpack
savetoqmcpack(mol,mf,'scf')
### end generated conversion text ###

#INFO: ******************** input file end ********************


System: uname_result(system='Linux', node='abenali', release='5.11.0-38-generic', version='#42~20.04.1-Ubuntu SMP Tue Sep 28 20:41:07 UTC 2021', machine='x86_64', processor='x86_64')  Threads 1
Python 3.7.11 (default, Sep  9 2021, 02:06:38) 
[GCC 9.3.0]
numpy 1.20.3  scipy 1.6.2
Date: Wed Oct 20 12:07:28 2021
PySCF version 2.0.0a
PySCF path  /home/abenali/Work/src/pyscf
GIT HEAD (branch master) 3e8ba375fd4229f000289589fd02193633380853

[CONFIG] conf_file None
[INPUT] verbose = 5
[INPUT] max_memory = 4000 
[INPUT] num. atoms = 2
[INPUT] num. electrons = 8
[INPUT] charge = 0
[INPUT] spin (= nelec alpha-beta = 2S) = 0
[INPUT] symmetry True subgroup None
[INPUT] Mole.unit = A
[INPUT]  1 Be     0.000000000000   0.000000000000   0.000000000000 AA    0.000000000000   0.000000000000   0.000000000000 Bohr
[INPUT]  2 Be     2.453603000000   0.000000000000   0.000000000000 AA    4.636637688411   0.000000000000   0.000000000000 Bohr
[INPUT] ---------------- BASIS SET ---------------- 
[INPUT] l, kappa, [nprim/nctr], expnt,             c_1 c_2 ...
[INPUT] Be
[INPUT] 0    0    [9    /2   ]  6863              0.000236 -4.3e-05
                                1030              0.001826 -0.000333
                                234.7             0.009452 -0.001736
                                66.56             0.037957 -0.007012
                                21.69             0.119965 -0.023126
                                7.734             0.282162 -0.058138
                                2.916             0.427404 -0.114556
                                1.13              0.266278 -0.135908
                                0.1101            -0.007275 0.577441
[INPUT] 0    0    [1    /1   ]  0.2577               1
[INPUT] 0    0    [1    /1   ]  0.04409              1
[INPUT] 1    0    [3    /1   ]  7.436             0.010736
                                1.577             0.062854
                                0.4352            0.24818
[INPUT] 1    0    [1    /1   ]  0.1438               1
[INPUT] 1    0    [1    /1   ]  0.04994              1
[INPUT] 2    0    [1    /1   ]  0.348                1
[INPUT] 2    0    [1    /1   ]  0.1803               1
[INPUT] 3    0    [1    /1   ]  0.325                1

nuclear repulsion = 3.45077641929848
point group symmetry = Dooh
num. orbitals of irrep A1g = 10
num. orbitals of irrep E1gx = 6
num. orbitals of irrep E1gy = 6
num. orbitals of irrep A1u = 10
num. orbitals of irrep E1uy = 6
num. orbitals of irrep E1ux = 6
num. orbitals of irrep E2gx = 3
num. orbitals of irrep E2gy = 3
num. orbitals of irrep E3gx = 1
num. orbitals of irrep E3gy = 1
num. orbitals of irrep E2uy = 3
num. orbitals of irrep E2ux = 3
num. orbitals of irrep E3uy = 1
num. orbitals of irrep E3ux = 1
number of shells = 18
number of NR pGTOs = 86
number of NR cGTOs = 60
basis = cc-pvtz
ecp = {}
CPU time:         0.30


******** <class 'pyscf.df.df_jk.density_fit.<locals>.DFHF'> ********
method = DFHF-SymAdaptedROHF-ROHF-RHF
initial guess = minao
damping factor = 0
level_shift factor = 0.0
DIIS = <class 'pyscf.scf.diis.CDIIS'>
diis_start_cycle = 1
diis_space = 8
SCF conv_tol = 1e-09
SCF conv_tol_grad = None
SCF max_cycles = 200
direct_scf = True
direct_scf_tol = 1e-13
chkfile to save SCF result = /home/abenali/Work/WorkShop/qmcpack_workshop_2021/qmc_workshop_2021/week4_molecules/Be2/00_dft/runs/Be2/cc-pvtz/HF/SCF/tmpwlkv3do_
max_memory 4000 MB (current use 111 MB)
num. doubly occ = 4  num. singly occ = 0
Freeze 0 electrons in irreps []
    8 free electrons in irreps A1g E1gx E1gy A1u E1uy E1ux E2gx E2gy E3gx E3gy E2uy E2ux E3uy E3ux
Set gradient conv threshold to 3.16228e-05
******** <class 'pyscf.df.df.DF'> ********
auxbasis = None
max_memory = 4000
_cderi_to_save = /home/abenali/Work/WorkShop/qmcpack_workshop_2021/qmc_workshop_2021/week4_molecules/Be2/00_dft/runs/Be2/cc-pvtz/HF/SCF/tmp4vy1uy7t
Even tempered Gaussians are generated as DF auxbasis for  Be
  ETB auxbasis for Be  [[0, [1444.74112, 1]], [0, [722.37056, 1]], [0, [361.18528, 1]], [0, [180.59264, 1]], [0, [90.29632, 1]], [0, [45.14816, 1]], [0, [22.57408, 1]], [0, [11.28704, 1]], [0, [5.64352, 1]], [0, [2.82176, 1]], [0, [1.41088, 1]], [0, [0.70544, 1]], [0, [0.35272, 1]], [0, [0.17636, 1]], [0, [0.08818, 1]], [1, [96.10019540145795, 1]], [1, [48.050097700728976, 1]], [1, [24.025048850364488, 1]], [1, [12.012524425182244, 1]], [1, [6.006262212591122, 1]], [1, [3.003131106295561, 1]], [1, [1.5015655531477805, 1]], [1, [0.7507827765738903, 1]], [1, [0.3753913882869451, 1]], [1, [0.18769569414347256, 1]], [1, [0.09384784707173628, 1]], [2, [12.78464, 1]], [2, [6.39232, 1]], [2, [3.19616, 1]], [2, [1.59808, 1]], [2, [0.79904, 1]], [2, [0.39952, 1]], [2, [0.19976, 1]], [2, [0.09988, 1]]]
num shells = 68, num cGTOs = 176
size of aux basis 176
int3c2e [1/1], AO [0:18], nrow = 1830
    CPU time for cholesky_eri      0.02 sec, wall time      0.02 sec
    CPU time for df vj and vk      0.03 sec, wall time      0.04 sec
E1 = -45.155223272960676  Ecoul = 12.449508244522738
init E= -29.2549386091395
cond(S) = 1114.8843271075195
    CPU time for initialize scf      0.05 sec, wall time      0.06 sec
HOMO (A1u) = -0.189919782923099  LUMO (E1ux) = 0.0248002686456149
double occ irrep_nelec = [2, 0, 0, 2, 0, 0, 0, 0, 0, 0, 0, 0, 0, 0]
single occ irrep_nelec = [0, 0, 0, 0, 0, 0, 0, 0, 0, 0, 0, 0, 0, 0]
  Roothaan mo_energy =
[-4.70512245 -0.44279509  0.03849033  0.19740451  0.22123803  0.62682393
  1.04856176  1.24853403  1.48885461  1.8557064   0.09943082  0.28432446
  0.68083884  1.05968694  1.50370916  1.89014308  0.09943082  0.28432446
  0.68083884  1.05968694  1.50370916  1.89014308 -4.70507033 -0.18991978
  0.15037389  0.22579587  0.37512488  0.77039383  1.03719525  1.45684619
  1.69514774  4.77367156  0.02480027  0.23851344  0.4628051   1.0085332
  1.21321786  1.49767333  0.02480027  0.23851344  0.4628051   1.0085332
  1.21321786  1.49767333  0.43422886  1.22811553  1.37980113  0.43422886
  1.22811553  1.37980113  1.36693695  1.36693695  0.53460747  1.41057267
  1.54245179  0.53460747  1.41057267  1.54245179  1.30104135  1.30104135]
    CPU time for df vj and vk      0.01 sec, wall time      0.01 sec
E1 = -44.92421041352482  Ecoul = 12.344011386536696
cycle= 1 E= -29.1294226076896  delta_E= 0.126  |g|= 0.0564  |ddm|= 0.535
    CPU time for cycle= 1      0.02 sec, wall time      0.02 sec
HOMO (A1u) = -0.250445184293396  LUMO (E1ux) = 0.0159025546182314
double occ irrep_nelec = [2, 0, 0, 2, 0, 0, 0, 0, 0, 0, 0, 0, 0, 0]
single occ irrep_nelec = [0, 0, 0, 0, 0, 0, 0, 0, 0, 0, 0, 0, 0, 0]
  Roothaan mo_energy =
[-4.73486729 -0.39932411  0.0182896   0.18655626  0.21415035  0.61890652
  1.02704559  1.22904308  1.4729128   1.83754547  0.08986318  0.27307873
  0.67407762  1.03840511  1.48611098  1.87521777  0.08986318  0.27307873
  0.67407762  1.03840511  1.48611098  1.87521777 -4.73484177 -0.25044518
  0.15216892  0.22122272  0.36174895  0.75752829  1.02689947  1.44580634
  1.67342158  4.74804591  0.01590255  0.22592311  0.44968114  0.98758398
  1.1867808   1.485141    0.01590255  0.22592311  0.44968114  0.98758398
  1.1867808   1.485141    0.41931506  1.20781832  1.35979901  0.41931506
  1.20781832  1.35979901  1.34746442  1.34746442  0.52286913  1.38787614
  1.52798777  0.52286913  1.38787614  1.52798777  1.28070868  1.28070868]
    CPU time for df vj and vk      0.01 sec, wall time      0.01 sec
E1 = -44.97644850176308  Ecoul = 12.392607162648948
cycle= 2 E= -29.1330649198157  delta_E= -0.00364  |g|= 0.0217  |ddm|= 0.0922
    CPU time for cycle= 2      0.02 sec, wall time      0.02 sec
HOMO (A1u) = -0.243089602080551  LUMO (A1g) = 0.0192797076878586
double occ irrep_nelec = [2, 0, 0, 2, 0, 0, 0, 0, 0, 0, 0, 0, 0, 0]
single occ irrep_nelec = [0, 0, 0, 0, 0, 0, 0, 0, 0, 0, 0, 0, 0, 0]
  Roothaan mo_energy =
[-4.72580461 -0.39327654  0.01927971  0.19103593  0.2156656   0.62094089
  1.03647517  1.23964482  1.47818137  1.84614385  0.0915844   0.27733817
  0.67568961  1.04494717  1.49433492  1.8801215   0.0915844   0.27733817
  0.67568961  1.04494717  1.49433492  1.8801215  -4.7257761  -0.2430896
  0.15223829  0.22215734  0.36852591  0.76410979  1.02713596  1.44835189
  1.68670342  4.76016507  0.02194362  0.23178306  0.45393185  0.99423072
  1.20261159  1.48685656  0.02194362  0.23178306  0.45393185  0.99423072
  1.20261159  1.48685656  0.4255762   1.21586034  1.36594676  0.4255762
  1.21586034  1.36594676  1.35185948  1.35185948  0.5258101   1.3973007
  1.53009628  0.5258101   1.3973007   1.53009628  1.28594919  1.28594919]
    CPU time for df vj and vk      0.01 sec, wall time      0.01 sec
E1 = -44.97215096596892  Ecoul = 12.387641928902447
cycle= 3 E= -29.133732617768  delta_E= -0.000668  |g|= 0.00606  |ddm|= 0.0514
    CPU time for cycle= 3      0.02 sec, wall time      0.02 sec
HOMO (A1u) = -0.2428962885598  LUMO (A1g) = 0.0161742099356997
double occ irrep_nelec = [2, 0, 0, 2, 0, 0, 0, 0, 0, 0, 0, 0, 0, 0]
single occ irrep_nelec = [0, 0, 0, 0, 0, 0, 0, 0, 0, 0, 0, 0, 0, 0]
  Roothaan mo_energy =
[-4.73109172 -0.39541743  0.01617421  0.19005569  0.21465482  0.61975117
  1.03377652  1.23767242  1.47592834  1.84384862  0.09055037  0.27600037
  0.67445511  1.04179123  1.49207337  1.87795438  0.09055037  0.27600037
  0.67445511  1.04179123  1.49207337  1.87795438 -4.73106163 -0.24289629
  0.15249066  0.22156618  0.36686302  0.76249884  1.02478091  1.44620052
  1.68451306  4.75678228  0.02049862  0.23034818  0.45226951  0.99103049
  1.20062781  1.48457687  0.02049862  0.23034818  0.45226951  0.99103049
  1.20062781  1.48457687  0.42395821  1.21366108  1.36314922  0.42395821
  1.21366108  1.36314922  1.34905255  1.34905255  0.52428155  1.3946038
  1.52765196  0.52428155  1.3946038   1.52765196  1.28319851  1.28319851]
    CPU time for df vj and vk      0.01 sec, wall time      0.01 sec
E1 = -44.967409541159604  Ecoul = 12.382832556170275
cycle= 4 E= -29.1338005656908  delta_E= -6.79e-05  |g|= 0.000607  |ddm|= 0.0191
    CPU time for cycle= 4      0.02 sec, wall time      0.02 sec
HOMO (A1u) = -0.242870646099633  LUMO (A1g) = 0.0159599393709616
double occ irrep_nelec = [2, 0, 0, 2, 0, 0, 0, 0, 0, 0, 0, 0, 0, 0]
single occ irrep_nelec = [0, 0, 0, 0, 0, 0, 0, 0, 0, 0, 0, 0, 0, 0]
  Roothaan mo_energy =
[-4.73137164 -0.39553689  0.01595994  0.18994453  0.21461501  0.61969076
  1.0336106   1.2375428   1.47576748  1.84372512  0.09049077  0.27589897
  0.67437587  1.04158529  1.49192608  1.87782056  0.09049077  0.27589897
  0.67437587  1.04158529  1.49192608  1.87782056 -4.73134158 -0.24287065
  0.1525165   0.22148916  0.36675123  0.76239338  1.02463747  1.44607875
  1.68437015  4.75659999  0.02037786  0.2302276   0.45215336  0.9908269
  1.20047181  1.48444585  0.02037786  0.2302276   0.45215336  0.9908269
  1.20047181  1.48444585  0.42381385  1.21349946  1.36294251  0.42381385
  1.21349946  1.36294251  1.34881978  1.34881978  0.52415296  1.39439267
  1.52748643  0.52415296  1.39439267  1.52748643  1.28296917  1.28296917]
    CPU time for df vj and vk      0.01 sec, wall time      0.01 sec
E1 = -44.96700160339753  Ecoul = 12.38242427193524
cycle= 5 E= -29.1338009121638  delta_E= -3.46e-07  |g|= 4.71e-05  |ddm|= 0.0062
    CPU time for cycle= 5      0.02 sec, wall time      0.02 sec
HOMO (A1u) = -0.242875051137218  LUMO (A1g) = 0.0159780935631908
double occ irrep_nelec = [2, 0, 0, 2, 0, 0, 0, 0, 0, 0, 0, 0, 0, 0]
single occ irrep_nelec = [0, 0, 0, 0, 0, 0, 0, 0, 0, 0, 0, 0, 0, 0]
  Roothaan mo_energy =
[-4.73134079 -0.39553997  0.01597809  0.18994722  0.21462491  0.61970285
  1.0336291   1.23755785  1.47578234  1.84374355  0.09049959  0.2759076
  0.67438761  1.04160312  1.49194271  1.87783942  0.09049959  0.2759076
  0.67438761  1.04160312  1.49194271  1.87783942 -4.73131077 -0.24287505
  0.15252567  0.22149133  0.36677334  0.76240557  1.02465772  1.44609962
  1.68438337  4.756618    0.02038456  0.23023363  0.45216478  0.99084533
  1.20048145  1.48446759  0.02038456  0.23023363  0.45216478  0.99084533
  1.20048145  1.48446759  0.42382152  1.21351431  1.36295806  0.42382152
  1.21351431  1.36295806  1.3488336   1.3488336   0.52416161  1.39440559
  1.52750533  0.52416161  1.39440559  1.52750533  1.2829827   1.2829827 ]
    CPU time for df vj and vk      0.01 sec, wall time      0.01 sec
E1 = -44.967045532745665  Ecoul = 12.382468199093182
cycle= 6 E= -29.133800914354  delta_E= -2.19e-09  |g|= 4.71e-06  |ddm|= 0.000868
    CPU time for cycle= 6      0.02 sec, wall time      0.02 sec
HOMO (A1u) = -0.242871930813766  LUMO (A1g) = 0.015977527627307
double occ irrep_nelec = [2, 0, 0, 2, 0, 0, 0, 0, 0, 0, 0, 0, 0, 0]
single occ irrep_nelec = [0, 0, 0, 0, 0, 0, 0, 0, 0, 0, 0, 0, 0, 0]
  Roothaan mo_energy =
[-4.73133752 -0.39553644  0.01597753  0.1899471   0.21462537  0.61970424
  1.03363089  1.23755996  1.4757838   1.84374609  0.09050065  0.27590851
  0.67438876  1.04160473  1.49194469  1.87784128  0.09050065  0.27590851
  0.67438876  1.04160473  1.49194469  1.87784128 -4.7313075  -0.24287193
  0.15252612  0.22149124  0.36677382  0.76240674  1.02465983  1.44610163
  1.68438555  4.75662059  0.02038542  0.23023415  0.45216581  0.99084712
  1.2004829   1.48446964  0.02038542  0.23023415  0.45216581  0.99084712
  1.2004829   1.48446964  0.42382192  1.21351553  1.36295929  0.42382192
  1.21351553  1.36295929  1.34883412  1.34883412  0.52416215  1.39440669
  1.52750671  0.52416215  1.39440669  1.52750671  1.2829832   1.2829832 ]
    CPU time for df vj and vk      0.01 sec, wall time      0.01 sec
E1 = -44.967045041151714  Ecoul = 12.382467707478275
cycle= 7 E= -29.133800914375  delta_E= -2.1e-11  |g|= 5.29e-07  |ddm|= 8.97e-05
    CPU time for cycle= 7      0.02 sec, wall time      0.02 sec
HOMO (A1u) = -0.242872264793274  LUMO (A1g) = 0.0159776510768933
double occ irrep_nelec = [2, 0, 0, 2, 0, 0, 0, 0, 0, 0, 0, 0, 0, 0]
single occ irrep_nelec = [0, 0, 0, 0, 0, 0, 0, 0, 0, 0, 0, 0, 0, 0]
  Roothaan mo_energy =
[-4.73133785 -0.39553687  0.01597765  0.18994704  0.2146254   0.61970424
  1.03363075  1.2375598   1.47578372  1.84374597  0.09050063  0.27590845
  0.67438878  1.0416046   1.49194458  1.87784125  0.09050063  0.27590845
  0.67438878  1.0416046   1.49194458  1.87784125 -4.73130783 -0.24287226
  0.15252624  0.22149125  0.36677392  0.7624067   1.02465981  1.44610162
  1.68438535  4.75662034  0.02038533  0.23023407  0.45216577  0.99084697
  1.20048269  1.48446964  0.02038533  0.23023407  0.45216577  0.99084697
  1.20048269  1.48446964  0.42382185  1.21351546  1.36295919  0.42382185
  1.21351546  1.36295919  1.3488341   1.3488341   0.52416214  1.39440656
  1.52750671  0.52416214  1.39440656  1.52750671  1.28298316  1.28298316]
    CPU time for df vj and vk      0.01 sec, wall time      0.01 sec
E1 = -44.967045371118886  Ecoul = 12.382468037445193
Extra cycle  E= -29.1338009143752  delta_E= -2.56e-13  |g|= 1.66e-07  |ddm|= 4e-06
    CPU time for scf_cycle      0.18 sec, wall time      0.19 sec
    CPU time for SCF      0.18 sec, wall time      0.19 sec
converged SCF energy = -29.1338009143752
Using Python 3.x
Wavefunction successfully saved to QMCPACK HDF5 Format
Use: "convert4qmc -pyscf  scf.h5" to generate QMCPACK input files
