#INFO: **** input file is /home/abenali/Work/WorkShop/qmcpack_workshop_2021/qmc_workshop_2021/week4_molecules/03_qmc_ccECP/Refs/O/SCF/scf.py ****

#! /usr/bin/env python3

import numpy as np
from numpy import array

### generated pyscfimport text ###
from pyscf import df, scf, dft
### end generated pyscfimport text ###





### generated system text ###
from pyscf import gto as gto_loc
mol = gto_loc.Mole()
mol.verbose  = 5
mol.atom     = '''
               O    0.00000000   0.00000000   0.00000000
               '''
mol.basis    = 'ccecp-ccpvtz'
mol.unit     = 'A'
mol.ecp      = 'ccecp'
mol.charge   = 0
mol.spin     = 2
mol.build()
### end generated system text ###




### generated calculation text ###
mf = scf.ROKS(mol)
mf.max_cycle=200
mf.level_shift=0.1
mf.xc          = 'SCAN'
mf.tol         = '1e-10'
e_scf = mf.kernel()
### end generated calculation text ###



### generated conversion text ###
from PyscfToQmcpack import savetoqmcpack
savetoqmcpack(mol,mf,'scf')
### end generated conversion text ###

#INFO: ******************** input file end ********************


System: uname_result(system='Linux', node='abenali', release='5.11.0-38-generic', version='#42~20.04.1-Ubuntu SMP Tue Sep 28 20:41:07 UTC 2021', machine='x86_64', processor='x86_64')  Threads 16
Python 3.7.11 (default, Sep  9 2021, 02:06:38) 
[GCC 9.3.0]
numpy 1.20.3  scipy 1.6.2
Date: Mon Oct 25 23:06:38 2021
PySCF version 2.0.0a
PySCF path  /home/abenali/Work/src/pyscf
GIT HEAD (branch master) 3e8ba375fd4229f000289589fd02193633380853

[CONFIG] conf_file None
[INPUT] verbose = 5
[INPUT] max_memory = 4000 
[INPUT] num. atoms = 1
[INPUT] num. electrons = 6
[INPUT] charge = 0
[INPUT] spin (= nelec alpha-beta = 2S) = 2
[INPUT] symmetry False subgroup None
[INPUT] Mole.unit = A
[INPUT]  1 O      0.000000000000   0.000000000000   0.000000000000 AA    0.000000000000   0.000000000000   0.000000000000 Bohr
[INPUT] ---------------- BASIS SET ---------------- 
[INPUT] l, kappa, [nprim/nctr], expnt,             c_1 c_2 ...
[INPUT] O
[INPUT] 0    0    [9    /1   ]  54.775216         -0.0012444
                                25.616801         0.010733
                                11.980245         0.0018889
                                6.992317          -0.1742537
                                2.620277          0.0017622
                                1.225429          0.3161846
                                0.577797          0.4512023
                                0.268022          0.3121534
                                0.125346          0.0511167
[INPUT] 0    0    [1    /1   ]  1.686633             1
[INPUT] 0    0    [1    /1   ]  0.237997             1
[INPUT] 1    0    [9    /1   ]  22.217266         0.0104866
                                10.74755          0.0366435
                                5.315785          0.0803674
                                2.660761          0.162701
                                1.331816          0.2377791
                                0.678626          0.2811422
                                0.333673          0.2643189
                                0.167017          0.1466014
                                0.083598          0.0458145
[INPUT] 1    0    [1    /1   ]  0.600621             1
[INPUT] 1    0    [1    /1   ]  0.184696             1
[INPUT] 2    0    [1    /1   ]  2.404278             1
[INPUT] 2    0    [1    /1   ]  0.66934              1
[INPUT] 3    0    [1    /1   ]  1.423104             1

nuclear repulsion = 0
number of shells = 9
number of NR pGTOs = 61
number of NR cGTOs = 29
basis = ccecp-ccpvtz
ecp = ccecp
CPU time:         0.41


******** <class 'pyscf.dft.roks.ROKS'> ********
method = ROKS-ROHF-RHF
initial guess = minao
damping factor = 0
level_shift factor = 0.1
DIIS = <class 'pyscf.scf.diis.CDIIS'>
diis_start_cycle = 1
diis_space = 8
SCF conv_tol = 1e-09
SCF conv_tol_grad = None
SCF max_cycles = 200
direct_scf = True
direct_scf_tol = 1e-13
chkfile to save SCF result = /home/abenali/Work/WorkShop/qmcpack_workshop_2021/qmc_workshop_2021/week4_molecules/03_qmc_ccECP/Refs/O/SCF/tmp_l9lmzaz
max_memory 4000 MB (current use 107 MB)
num. doubly occ = 2  num. singly occ = 2
XC library pyscf.dft.libxc version 5.1.5
    S. Lehtola, C. Steigemann, M. J. Oliveira, and M. A. Marques, SoftwareX 7, 1 (2018)
XC functionals = SCAN
    J. Sun, A. Ruzsinszky, and J. P. Perdew, Phys. Rev. Lett. 115, 036402 (2015)
    J. Sun, A. Ruzsinszky, and J. P. Perdew, Phys. Rev. Lett. 115, 036402 (2015)
radial grids: 
    Treutler-Ahlrichs [JCP 102, 346 (1995); DOI:10.1063/1.469408] (M4) radial grids
    
becke partition: Becke, JCP 88, 2547 (1988); DOI:10.1063/1.454033
pruning grids: <function nwchem_prune at 0x7fa8116a4e60>
grids dens level: 3
symmetrized grids: False
atomic radii adjust function: <function treutler_atomic_radii_adjust at 0x7fa8116ad320>
small_rho_cutoff = 1e-07
Set gradient conv threshold to 3.16228e-05
atom O rad-grids = 75, ang-grids = [ 50  50  50  50  50  50  50  50  50  50  50  50  50  50  50  50  50  50
  50  50  50  50  86  86  86  86  86  86  86  86  86 266 266 266 266 266
 266 266 302 302 302 302 302 302 302 302 302 302 302 302 302 302 302 302
 302 302 302 266 266 266 266 266 266 266 266 266 266 266 266 266 266 266
 266 266 266]
tot grids = 14262
Drop grids 998
    CPU time for setting up grids      0.28 sec, wall time      0.04 sec
nelec by numeric integration = [3. 3.]
    CPU time for vxc      3.31 sec, wall time      0.48 sec
E1 = -26.14158885244277  Ecoul = 13.56928610291625  Exc = -3.1908749446914504
init E= -15.763177694218
cond(S) = 68.8915729418297
    CPU time for initialize scf      5.34 sec, wall time      0.82 sec
  HOMO = -0.323349863796021  LUMO = 0.564924044753694
                  Roothaan           | alpha              | beta
  Highest 2-occ = -0.323349863796027 | -0.356702169518678 | -0.356702169518678
  Lowest 0-occ =   0.564924044753694 |  0.464939037079143 |  0.464939037079143
  1-occ =         -0.323349863796026 | -0.356702169518678 | -0.356702169518678
  1-occ =         -0.323349863796021 | -0.356702169518678 | -0.356702169518678
  Roothaan mo_energy =
[-0.96432142 -0.32334986 -0.32334986 -0.32334986  0.56492404  0.56492404
  0.56492404  0.88934922  1.57058386  1.57058386  1.57058386  1.57058386
  1.57058386  2.97933124  2.97933124  2.97933124  5.24840598  5.24840598
  5.24840598  5.24840598  5.24840598  5.24840598  5.24840598  6.49609851
  6.49609851  6.49609851  6.49609851  6.49609851 14.95863203]
nelec by numeric integration = [4. 2.]
    CPU time for vxc      3.23 sec, wall time      0.48 sec
E1 = -26.30538309677175  Ecoul = 13.806037593105533  Exc = -3.3773423817191244
cycle= 1 E= -15.8766878853853  delta_E= -0.114  |g|= 0.101  |ddm|= 1.24
    CPU time for cycle= 1      3.52 sec, wall time      0.52 sec
  HOMO = -0.254412345247662  LUMO = 0.58263904882156
                  Roothaan           | alpha              | beta
  Highest 2-occ = -0.310948544330043 | -0.334983453036746 | -0.286976246033242
  Lowest 0-occ =    0.58263904882156 |  0.440097435546758 |  0.494383529235394
  1-occ =          -0.25455265131841 | -0.422354115193702 |  -0.18084373500359
  1-occ =         -0.254412345247662 | -0.422389637510905 | -0.180516377543178
  Roothaan mo_energy =
[-0.90496066 -0.31094854 -0.25455265 -0.25441235  0.58263905  0.59245083
  0.5924655   0.91399859  1.57656247  1.5766709   1.57932968  1.57943579
  1.59910342  2.99155005  3.03213546  3.03267831  5.21847088  5.2205856
  5.2234354   5.22371642  5.22824817  5.24241821  5.24349986  6.48960876
  6.49024334  6.50860765  6.51001173  6.52720479 15.02129976]
nelec by numeric integration = [4. 2.]
    CPU time for vxc      3.46 sec, wall time      0.49 sec
E1 = -26.298269514881213  Ecoul = 13.794510086212231  Exc = -3.3762952098974646
cycle= 2 E= -15.8800546385664  delta_E= -0.00337  |g|= 0.0109  |ddm|= 0.145
    CPU time for cycle= 2      3.73 sec, wall time      0.52 sec
  HOMO = -0.25141796495166  LUMO = 0.578719024327075
                  Roothaan           | alpha              | beta
  Highest 2-occ =  -0.31361769782184 | -0.336973257083279 |  -0.29026442757703
  Lowest 0-occ =   0.578719024327075 |  0.442716167421876 |  0.486966805840653
  1-occ =         -0.251573754312855 | -0.424851470545302 | -0.177285918166264
  1-occ =          -0.25141796495166 | -0.424889703322226 | -0.176934783484422
  Roothaan mo_energy =
[-0.90597013 -0.3136177  -0.25157375 -0.25141796  0.57871902  0.59060647
  0.59060933  0.91336115  1.57496694  1.57506443  1.57914152  1.57932866
  1.59689033  2.99018112  3.03109439  3.03163987  5.21770023  5.21997662
  5.22271527  5.22306509  5.22673098  5.24103888  5.24184338  6.48878213
  6.48915335  6.5100459   6.5113496   6.52505903 15.02124504]
nelec by numeric integration = [4. 2.]
    CPU time for vxc      4.19 sec, wall time      0.55 sec
E1 = -26.303227696982276  Ecoul = 13.801538242847084  Exc = -3.3784446306436977
cycle= 3 E= -15.8801340847789  delta_E= -7.94e-05  |g|= 0.00322  |ddm|= 0.0296
    CPU time for cycle= 3      4.47 sec, wall time      0.59 sec
  HOMO = -0.249469285501175  LUMO = 0.578908483162582
                  Roothaan           | alpha              | beta
  Highest 2-occ = -0.312414752274579 | -0.335923373069394 | -0.289147144247143
  Lowest 0-occ =   0.578908483162582 |  0.443259673981066 |  0.486740289889697
  1-occ =         -0.249593495685106 | -0.424086866003152 | -0.175528858569463
  1-occ =         -0.249469285501175 | -0.424119860772108 | -0.175239783456193
  Roothaan mo_energy =
[-0.90470775 -0.31241475 -0.2495935  -0.24946929  0.57890848  0.59054485
  0.59055695  0.91424085  1.57566447  1.57572478  1.57996844  1.58013368
  1.59757681  2.99211709  3.0323161   3.03283828  5.21901073  5.22110699
  5.22380919  5.22426135  5.22789551  5.24241749  5.24327357  6.49108164
  6.49115379  6.51222278  6.5133331   6.52677889 15.02394178]
nelec by numeric integration = [4. 2.]
    CPU time for vxc      4.92 sec, wall time      0.63 sec
E1 = -26.297886931464554  Ecoul = 13.794618798533314  Exc = -3.376879924488466
cycle= 4 E= -15.8801480574197  delta_E= -1.4e-05  |g|= 0.00229  |ddm|= 0.0153
    CPU time for cycle= 4      5.34 sec, wall time      0.68 sec
  HOMO = -0.250289200101768  LUMO = 0.578537062565112
                  Roothaan           | alpha              | beta
  Highest 2-occ = -0.313130777828404 | -0.336965159392871 |  -0.29018017878566
  Lowest 0-occ =   0.578537062565112 |  0.442784950156352 |  0.485994955436247
  1-occ =         -0.250388201829226 | -0.425181363966643 | -0.176469472448788
  1-occ =         -0.250289200101768 | -0.425211585583441 | -0.176281681422988
  Roothaan mo_energy =
[-0.90545515 -0.31313078 -0.2503882  -0.2502892   0.57853706  0.59023794
  0.59025862  0.91377574  1.5752621   1.57529849  1.57958882  1.57973801
  1.59717414  2.99134634  3.03152656  3.03202153  5.21851899  5.22044704
  5.22335079  5.22380528  5.22731838  5.24187092  5.24292066  6.49016639
  6.49044105  6.51131432  6.51230066  6.52572767 15.02262199]
nelec by numeric integration = [4. 2.]
    CPU time for vxc      4.13 sec, wall time      0.54 sec
E1 = -26.300344229368974  Ecoul = 13.797856251197398  Exc = -3.377668639478139
cycle= 5 E= -15.8801566176497  delta_E= -8.56e-06  |g|= 0.00186  |ddm|= 0.0119
    CPU time for cycle= 5      4.54 sec, wall time      0.59 sec
  HOMO = -0.250257301992518  LUMO = 0.578549205741159
                  Roothaan           | alpha              | beta
  Highest 2-occ = -0.313145657577964 | -0.336483299145644 |  -0.28968200776663
  Lowest 0-occ =   0.578549205741159 |   0.44299866040924 |  0.486251812967665
  1-occ =         -0.250413376946603 | -0.424695721802437 | -0.175889572893965
  1-occ =         -0.250257301992518 | -0.424722682285853 | -0.175829390889824
  Roothaan mo_energy =
[-0.9054483  -0.31314566 -0.25041338 -0.2502573   0.57854921  0.59024988
  0.59026279  0.91372492  1.57521678  1.57528935  1.57951449  1.57967838
  1.59713804  2.99132722  3.03145998  3.03201629  5.21835177  5.2204926
  5.2231412   5.223628    5.22729742  5.24180564  5.24263324  6.49009743
  6.49021186  6.51127403  6.51235037  6.52584447 15.02265019]
nelec by numeric integration = [4. 2.]
    CPU time for vxc      3.84 sec, wall time      0.51 sec
E1 = -26.30058083377161  Ecoul = 13.798171656191307  Exc = -3.377748361171554
cycle= 6 E= -15.8801575387519  delta_E= -9.21e-07  |g|= 0.0039  |ddm|= 0.0105
    CPU time for cycle= 6      4.16 sec, wall time      0.55 sec
  HOMO = -0.250312325225232  LUMO = 0.578468580152078
                  Roothaan           | alpha              | beta
  Highest 2-occ = -0.313119832197819 | -0.336437174374951 | -0.289625616662853
  Lowest 0-occ =   0.578468580152078 |   0.44301981254561 |  0.486275694392586
  1-occ =         -0.250340074698552 | -0.424665523003373 |  -0.17581200206585
  1-occ =         -0.250312325225232 | -0.424653900333566 | -0.175773664413785
  Roothaan mo_energy =
[-0.90546322 -0.31311983 -0.25034007 -0.25031233  0.57846858  0.59017278
  0.59022234  0.91391848  1.57528953  1.57538417  1.57979531  1.57990457
  1.59729102  2.99137506  3.03159406  3.0319739   5.21871237  5.21985584
  5.22407098  5.22460785  5.22744638  5.2418677   5.24398847  6.49006134
  6.49117776  6.51149918  6.51208475  6.5254282  15.0224061 ]
nelec by numeric integration = [4. 2.]
    CPU time for vxc      4.26 sec, wall time      0.56 sec
E1 = -26.300343491606522  Ecoul = 13.797858557212177  Exc = -3.377681092885938
cycle= 7 E= -15.8801660272803  delta_E= -8.49e-06  |g|= 0.00143  |ddm|= 0.0106
    CPU time for cycle= 7      4.60 sec, wall time      0.60 sec
  HOMO = -0.250149953698091  LUMO = 0.57854628849382
                  Roothaan           | alpha              | beta
  Highest 2-occ = -0.313054213589461 | -0.336481238443228 | -0.289673858349355
  Lowest 0-occ =    0.57854628849382 |  0.443001179217228 |  0.486230022082259
  1-occ =         -0.250248715101665 | -0.424724341340758 | -0.175863908121484
  1-occ =         -0.250149953698091 | -0.424698167820792 | -0.175699384657884
  Roothaan mo_energy =
[-0.90543802 -0.31305421 -0.25024872 -0.25014995  0.57854629  0.59026792
  0.59032638  0.913965    1.57533733  1.57547329  1.57986663  1.57995689
  1.59733259  2.99143397  3.03220728  3.03251185  5.21895239  5.21968306
  5.22454204  5.22504285  5.22748759  5.24179728  5.24418345  6.49022293
  6.49148683  6.51164734  6.51264605  6.52571041 15.02323353]
nelec by numeric integration = [4. 2.]
    CPU time for vxc      4.65 sec, wall time      0.59 sec
E1 = -26.30019750786447  Ecoul = 13.797660839186598  Exc = -3.377630875907592
cycle= 8 E= -15.8801675445855  delta_E= -1.52e-06  |g|= 0.000311  |ddm|= 0.00344
    CPU time for cycle= 8      5.02 sec, wall time      0.64 sec
  HOMO = -0.250139476264502  LUMO = 0.578517704050729
                  Roothaan           | alpha              | beta
  Highest 2-occ = -0.313082202298842 | -0.336511501618297 | -0.289706567103334
  Lowest 0-occ =   0.578517704050729 |  0.442988053879027 |  0.486214081667311
  1-occ =         -0.250299351247751 | -0.424750676655147 | -0.175873973193377
  1-occ =         -0.250139476264502 | -0.424726342342586 | -0.175682649533709
  Roothaan mo_energy =
[-0.90548189 -0.3130822  -0.25029935 -0.25013948  0.5785177   0.59025421
  0.59032267  0.91397805  1.57531967  1.57548319  1.57990599  1.5799782
  1.59735216  2.99137656  3.0323039   3.03263134  5.21888893  5.21938083
  5.22483135  5.22537285  5.2275206   5.2417131   5.2445207   6.49012928
  6.4916406   6.51171489  6.51265838  6.52567997 15.02331564]
nelec by numeric integration = [4. 2.]
    CPU time for vxc      4.15 sec, wall time      0.53 sec
E1 = -26.30029576792691  Ecoul = 13.797790361510577  Exc = -3.3776623863307536
cycle= 9 E= -15.8801677927471  delta_E= -2.48e-07  |g|= 0.000717  |ddm|= 0.00272
    CPU time for cycle= 9      4.43 sec, wall time      0.56 sec
  HOMO = -0.250123670482383  LUMO = 0.578516320105988
                  Roothaan           | alpha              | beta
  Highest 2-occ = -0.313082974809029 | -0.336492551535983 |  -0.28969104619134
  Lowest 0-occ =   0.578516320105988 |  0.442996492793433 |   0.48621487548222
  1-occ =         -0.250273056003216 | -0.424730871501533 | -0.175828129891237
  1-occ =         -0.250123670482383 | -0.424707127878576 | -0.175618402995876
  Roothaan mo_energy =
[-0.90547412 -0.31308297 -0.25027306 -0.25012367  0.57851632  0.59025009
  0.59031288  0.9139612   1.57531809  1.57547323  1.57988122  1.57995435
  1.59733424  2.99138304  3.0323362   3.03263142  5.21891356  5.21943244
  5.22472155  5.22521653  5.22748685  5.2417025   5.24441222  6.49012955
  6.49160493  6.51173175  6.51264203  6.52572346 15.02340981]
nelec by numeric integration = [4. 2.]
    CPU time for vxc      4.62 sec, wall time      0.58 sec
E1 = -26.300310447454475  Ecoul = 13.797809508914803  Exc = -3.3776671927198905
cycle= 10 E= -15.8801681312596  delta_E= -3.39e-07  |g|= 0.000343  |ddm|= 0.00194
    CPU time for cycle= 10      4.95 sec, wall time      0.62 sec
  HOMO = -0.250121228463232  LUMO = 0.578515707571161
                  Roothaan           | alpha              | beta
  Highest 2-occ = -0.313083644053409 | -0.336489640338507 | -0.289690087826563
  Lowest 0-occ =   0.578515707571161 |  0.442998127482698 |  0.486212583804299
  1-occ =         -0.250270779288626 | -0.424727894118538 | -0.175808633973162
  1-occ =         -0.250121228463232 | -0.424703962485357 |  -0.17558129153371
  Roothaan mo_energy =
[-0.90547465 -0.31308364 -0.25027078 -0.25012123  0.57851571  0.59025129
  0.59031527  0.91396233  1.5753181   1.57547619  1.57988374  1.57995461
  1.59733403  2.99138407  3.03234571  3.0326477   5.21891344  5.2194185
  5.22474411  5.22523706  5.22748958  5.24169851  5.24442209  6.49012913
  6.49161677  6.51174527  6.51264979  6.5257287  15.02341916]
nelec by numeric integration = [4. 2.]
    CPU time for vxc      4.32 sec, wall time      0.55 sec
E1 = -26.30030849583758  Ecoul = 13.797806912024674  Exc = -3.377666664857365
cycle= 11 E= -15.8801682486703  delta_E= -1.17e-07  |g|= 0.000284  |ddm|= 0.00141
    CPU time for cycle= 11      4.71 sec, wall time      0.60 sec
  HOMO = -0.250107378688185  LUMO = 0.578510352400927
                  Roothaan           | alpha              | beta
  Highest 2-occ = -0.313088445162789 | -0.336490167354601 | -0.289692226207997
  Lowest 0-occ =   0.578510352400927 |  0.442998719846968 |  0.486208345671523
  1-occ =         -0.250250494692168 | -0.424728228304117 | -0.175795409017753
  1-occ =         -0.250107378688185 | -0.424704208985691 | -0.175555343350325
  Roothaan mo_energy =
[-0.90547322 -0.31308845 -0.25025049 -0.25010738  0.57851035  0.59024836
  0.59031277  0.91395219  1.57531528  1.57547509  1.57987175  1.57993706
  1.59731969  2.99138759  3.03238497  3.03268327  5.21892255  5.21941536
  5.22472433  5.22518057  5.22747327  5.24168015  5.24437363  6.49012326
  6.49161899  6.51179181  6.51264899  6.52576759 15.02349566]
nelec by numeric integration = [4. 2.]
    CPU time for vxc      4.71 sec, wall time      0.60 sec
E1 = -26.300316414228835  Ecoul = 13.797817334597477  Exc = -3.377669214945667
cycle= 12 E= -15.880168294577  delta_E= -4.59e-08  |g|= 0.000209  |ddm|= 0.00066
    CPU time for cycle= 12      5.14 sec, wall time      0.65 sec
  HOMO = -0.250108605863343  LUMO = 0.578510006007567
                  Roothaan           | alpha              | beta
  Highest 2-occ = -0.313090318827105 | -0.336488623219513 |  -0.28969079658441
  Lowest 0-occ =   0.578510006007567 |   0.44299951098201 |   0.48620772587754
  1-occ =         -0.250251793619373 | -0.424726637536112 | -0.175790179286975
  1-occ =         -0.250108605863343 | -0.424702589724863 | -0.175544433127681
  Roothaan mo_energy =
[-0.90547498 -0.31309032 -0.25025179 -0.25010861  0.57851001  0.59024684
  0.59031061  0.91394833  1.57531408  1.57547207  1.57986684  1.57993262
  1.5973162   2.99138454  3.03238713  3.03268047  5.21892427  5.21942139
  5.22470741  5.22516024  5.22746687  5.24167742  5.24435721  6.49012163
  6.49160896  6.51178712  6.51264666  6.52577001 15.02350399]
nelec by numeric integration = [4. 2.]
    CPU time for vxc      4.66 sec, wall time      0.59 sec
E1 = -26.300330761577786  Ecoul = 13.797836034228556  Exc = -3.3776735922594243
cycle= 13 E= -15.8801683196087  delta_E= -2.5e-08  |g|= 0.000143  |ddm|= 0.000466
    CPU time for cycle= 13      5.05 sec, wall time      0.64 sec
  HOMO = -0.250106966301831  LUMO = 0.578510439638842
                  Roothaan           | alpha              | beta
  Highest 2-occ = -0.313089459164725 | -0.336485856579214 | -0.289688426663519
  Lowest 0-occ =   0.578510439638842 |  0.443000873423097 |  0.486208339208275
  1-occ =         -0.250249821156552 | -0.424723701165149 | -0.175783555470456
  1-occ =         -0.250106966301831 | -0.424699637771831 | -0.175533786578351
  Roothaan mo_energy =
[-0.90547383 -0.31308946 -0.25024982 -0.25010697  0.57851044  0.59024712
  0.59031096  0.91394862  1.57531469  1.57547279  1.57986692  1.5799323
  1.597316    2.9913858   3.03239008  3.03268355  5.21892601  5.21942171
  5.22470818  5.22515958  5.22746705  5.24167734  5.24435539  6.49012308
  6.49161039  6.51179085  6.51264848  6.52577328 15.02350853]
nelec by numeric integration = [4. 2.]
    CPU time for vxc      4.80 sec, wall time      0.61 sec
E1 = -26.30032804709554  Ecoul = 13.79783242138383  Exc = -3.3776727054441564
cycle= 14 E= -15.8801683311559  delta_E= -1.15e-08  |g|= 0.000111  |ddm|= 0.000319
    CPU time for cycle= 14      5.26 sec, wall time      0.67 sec
  HOMO = -0.250107444316059  LUMO = 0.578510067906715
                  Roothaan           | alpha              | beta
  Highest 2-occ =  -0.31309011425543 | -0.336486426119456 | -0.289689328768183
  Lowest 0-occ =   0.578510067906715 |  0.443000682184036 |  0.486207226816496
  1-occ =         -0.250249860845856 | -0.424724218474938 |  -0.17578117721482
  1-occ =         -0.250107444316059 |  -0.42470012106582 | -0.175528704920699
  Roothaan mo_energy =
[-0.90547415 -0.31309011 -0.25024986 -0.25010744  0.57851007  0.59024662
  0.59031038  0.91394779  1.57531435  1.57547223  1.57986582  1.57993102
  1.59731491  2.99138526  3.03238939  3.03268225  5.21892647  5.21942244
  5.22470492  5.22515491  5.22746565  5.24167644  5.24435126  6.49012232
  6.49160854  6.51179114  6.51264638  6.52577342 15.02350779]
nelec by numeric integration = [4. 2.]
    CPU time for vxc      4.67 sec, wall time      0.60 sec
E1 = -26.300330567442124  Ecoul = 13.797835712023675  Exc = -3.377673482300515
cycle= 15 E= -15.880168337719  delta_E= -6.56e-09  |g|= 8.55e-05  |ddm|= 0.00023
    CPU time for cycle= 15      5.07 sec, wall time      0.64 sec
  HOMO = -0.250106060298057  LUMO = 0.578510643236182
                  Roothaan           | alpha              | beta
  Highest 2-occ = -0.313088872229484 | -0.336485939744435 | -0.289689087570182
  Lowest 0-occ =   0.578510643236182 |  0.443000934929907 |  0.486206933668597
  1-occ =         -0.250248491653602 | -0.424723707499705 | -0.175778702573524
  1-occ =         -0.250106060298057 | -0.424699582283673 | -0.175524303521251
  Roothaan mo_energy =
[-0.90547288 -0.31308887 -0.25024849 -0.25010606  0.57851064  0.59024701
  0.59031073  0.91394869  1.57531513  1.57547309  1.57986661  1.57993165
  1.59731552  2.99138667  3.03239076  3.0326838   5.21892789  5.21942276
  5.22470699  5.22515682  5.22746677  5.24167726  5.24435241  6.49012407
  6.49161048  6.51179338  6.51264812  6.52577515 15.02350941]
nelec by numeric integration = [4. 2.]
    CPU time for vxc      5.22 sec, wall time      0.66 sec
E1 = -26.300325378510326  Ecoul = 13.79782888133811  Exc = -3.3776718440653424
cycle= 16 E= -15.8801683412376  delta_E= -3.52e-09  |g|= 6.87e-05  |ddm|= 0.000161
    CPU time for cycle= 16      5.61 sec, wall time      0.71 sec
  HOMO = -0.25010617946294  LUMO = 0.578510585052026
                  Roothaan           | alpha              | beta
  Highest 2-occ = -0.313088922992606 | -0.336486973734587 | -0.289690298631314
  Lowest 0-occ =   0.578510585052026 |  0.443000484895744 |  0.486205937342364
  1-occ =         -0.250248623098165 | -0.424724730466023 | -0.175778309998708
  1-occ =          -0.25010617946294 | -0.424700587106652 | -0.175522568547011
  Roothaan mo_energy =
[-0.90547297 -0.31308892 -0.25024862 -0.25010618  0.57851059  0.59024696
  0.59031066  0.91394868  1.5753151   1.57547308  1.57986664  1.57993167
  1.59731551  2.99138661  3.03239057  3.03268375  5.21892779  5.21942256
  5.22470732  5.22515736  5.22746685  5.24167729  5.24435265  6.49012409
  6.4916105   6.51179327  6.51264823  6.52577498 15.02350903]
nelec by numeric integration = [4. 2.]
    CPU time for vxc      5.51 sec, wall time      0.70 sec
E1 = -26.30032517757713  Ecoul = 13.797828619010337  Exc = -3.3776717849498
cycle= 17 E= -15.8801683435166  delta_E= -2.28e-09  |g|= 5.34e-05  |ddm|= 0.000129
    CPU time for cycle= 17      5.89 sec, wall time      0.74 sec
  HOMO = -0.250106446761166  LUMO = 0.578510496265469
                  Roothaan           | alpha              | beta
  Highest 2-occ = -0.313089015373949 |  -0.33648702249317 |  -0.28969047903285
  Lowest 0-occ =   0.578510496265469 |  0.443000460276496 |  0.486205555982315
  1-occ =         -0.250248866764783 | -0.424724765028672 |  -0.17577716565452
  1-occ =         -0.250106446761166 | -0.424700612105593 | -0.175520342974468
  Roothaan mo_energy =
[-0.90547311 -0.31308902 -0.25024887 -0.25010645  0.5785105   0.59024685
  0.59031049  0.91394867  1.57531507  1.57547308  1.57986664  1.57993162
  1.5973154   2.99138652  3.03238994  3.03268339  5.21892782  5.2194223
  5.22470776  5.22515808  5.22746691  5.2416773   5.24435265  6.49012416
  6.4916104   6.51179315  6.51264814  6.52577459 15.02350771]
nelec by numeric integration = [4. 2.]
    CPU time for vxc      5.18 sec, wall time      0.66 sec
E1 = -26.300325462742123  Ecoul = 13.797828992154779  Exc = -3.3776718742909724
cycle= 18 E= -15.8801683448783  delta_E= -1.36e-09  |g|= 4.17e-05  |ddm|= 9.79e-05
    CPU time for cycle= 18      5.50 sec, wall time      0.71 sec
  HOMO = -0.250106502570356  LUMO = 0.578510487178148
                  Roothaan           | alpha              | beta
  Highest 2-occ = -0.313089037173379 | -0.336486974771618 | -0.289690524551164
  Lowest 0-occ =   0.578510487178148 |  0.443000484628229 |  0.486205320540078
  1-occ =         -0.250248910244707 |  -0.42472470628834 | -0.175776220785998
  1-occ =         -0.250106502570356 | -0.424700542339131 | -0.175518585107019
  Roothaan mo_energy =
[-0.90547313 -0.31308904 -0.25024891 -0.2501065   0.57851049  0.59024684
  0.59031048  0.91394865  1.57531506  1.57547306  1.57986663  1.57993161
  1.59731539  2.9913865   3.03238982  3.03268328  5.21892782  5.21942233
  5.22470771  5.22515805  5.22746689  5.24167731  5.24435259  6.49012416
  6.49161034  6.51179308  6.51264808  6.52577451 15.02350749]
nelec by numeric integration = [4. 2.]
    CPU time for vxc      3.85 sec, wall time      0.50 sec
E1 = -26.300325561824707  Ecoul = 13.7978291218414  Exc = -3.377671905744815
cycle= 19 E= -15.8801683457281  delta_E= -8.5e-10  |g|= 3.24e-05  |ddm|= 7.79e-05
    CPU time for cycle= 19      4.17 sec, wall time      0.54 sec
Linear dependence found in DIIS error vectors.
  HOMO = -0.25010651604581  LUMO = 0.578510505111913
                  Roothaan           | alpha              | beta
  Highest 2-occ = -0.313089022517516 |  -0.33648696093982 | -0.289690585619207
  Lowest 0-occ =   0.578510505111913 |  0.443000495973725 |  0.486205123809425
  1-occ =         -0.250248922647563 | -0.424724683789738 | -0.175775510200227
  1-occ =          -0.25010651604581 | -0.424700511855841 | -0.175517225918637
  Roothaan mo_energy =
[-0.90547312 -0.31308902 -0.25024892 -0.25010652  0.57851051  0.59024685
  0.59031048  0.91394867  1.57531507  1.57547308  1.57986665  1.57993162
  1.5973154   2.99138651  3.03238976  3.03268327  5.21892783  5.21942232
  5.22470779  5.22515817  5.22746693  5.24167733  5.24435262  6.49012419
  6.49161035  6.51179308  6.51264809  6.52577448 15.02350736]
nelec by numeric integration = [4. 2.]
    CPU time for vxc      4.43 sec, wall time      0.57 sec
E1 = -26.30032553291497  Ecoul = 13.797829082575118  Exc = -3.377671895911465
cycle= 20 E= -15.8801683462513  delta_E= -5.23e-10  |g|= 2.52e-05  |ddm|= 6.14e-05
    CPU time for cycle= 20      4.71 sec, wall time      0.60 sec
  HOMO = -0.300108341723519  LUMO = 0.478510849930134
                  Roothaan           | alpha              | beta
  Highest 2-occ = -0.313088817272635 | -0.336486950576583 |  -0.28969063638196
  Lowest 0-occ =   0.478510849930134 |  0.443000414955894 |  0.486204960007143
  1-occ =         -0.300249827545411 | -0.424724688379104 | -0.175775002281288
  1-occ =         -0.300108341723519 | -0.424700528030063 | -0.175516178045145
  Roothaan mo_energy =
[-0.90547283 -0.31308882 -0.30024983 -0.30010834  0.47851085  0.49024698
  0.49031043  0.81394881  1.47531525  1.47547265  1.47986647  1.47993209
  1.49731572  2.89138687  2.93238376  2.93267739  5.11892747  5.11942768
  5.1247028   5.125155    5.12746708  5.14167993  5.14434966  6.39012513
  6.39160706  6.41178852  6.41264569  6.42577123 14.92349833]
nelec by numeric integration = [4. 2.]
    CPU time for vxc      5.04 sec, wall time      0.64 sec
E1 = -26.30032427241123  Ecoul = 13.797827433481672  Exc = -3.3776715030616424
Extra cycle  E= -15.8801683419912  delta_E= 4.26e-09  |g|= 7.9e-05  |ddm|= 0.000703
    CPU time for scf_cycle    106.62 sec, wall time     13.89 sec
    CPU time for SCF    106.62 sec, wall time     13.89 sec
converged SCF energy = -15.8801683419912
Using Python 3.x
Wavefunction successfully saved to QMCPACK HDF5 Format
Use: "convert4qmc -pyscf  scf.h5" to generate QMCPACK input files
