 CRYSTAL
 PRIMVEC
     1.51725000    1.51725000    0.00000000
    -0.00000000    1.51725000    1.51725000
     1.51725000   -0.00000000    1.51725000
 PRIMCOORD
   2 1
     6   0.00000000    0.00000000    0.00000000
     6   0.75862500    0.75862500    0.75862500
