
     Program PWSCF v.6.3MaX starts on 27Sep2021 at 13: 8:13 

     This program is part of the open-source Quantum ESPRESSO suite
     for quantum simulation of materials; please cite
         "P. Giannozzi et al., J. Phys.:Condens. Matter 21 395502 (2009);
         "P. Giannozzi et al., J. Phys.:Condens. Matter 29 465901 (2017);
          URL http://www.quantum-espresso.org", 
     in publications or presentations arising from this work. More details at
     http://www.quantum-espresso.org/quote

     Parallel version (MPI), running on    12 processors

     MPI processes distributed on     1 nodes
     R & G space division:  proc/nbgrp/npool/nimage =      12
     Reading input from scf.in

     Current dimensions of program PWSCF are:
     Max number of different atomic species (ntypx) = 10
     Max number of k-points (npk) =  40000
     Max angular momentum in pseudopotentials (lmaxx) =  3

     IMPORTANT: XC functional enforced from input :
     Exchange-correlation      = PBE ( 1  4  3  4 0 0)
     Any further DFT definition will be discarded
     Please, verify this is what you really want


     Subspace diagonalization in iterative solution of the eigenvalue problem:
     a serial algorithm will be used


     Parallelization info
     --------------------
     sticks:   dense  smooth     PW     G-vecs:    dense   smooth      PW
     Min          76      76     22                 1504     1504     240
     Max          77      77     23                 1507     1507     243
     Sum         913     913    265                18053    18053    2891



     bravais-lattice index     =            0
     lattice parameter (alat)  =       4.0548  a.u.
     unit-cell volume          =      47.1409 (a.u.)^3
     number of atoms/cell      =            2
     number of atomic types    =            1
     number of electrons       =         8.00
     number of Kohn-Sham states=            4
     kinetic-energy cutoff     =     200.0000  Ry
     charge density cutoff     =     800.0000  Ry
     convergence threshold     =      1.0E-08
     mixing beta               =       0.7000
     number of iterations used =            8  plain     mixing
     Exchange-correlation      = PBE ( 1  4  3  4 0 0)

     celldm(1)=   4.054815  celldm(2)=   0.000000  celldm(3)=   0.000000
     celldm(4)=   0.000000  celldm(5)=   0.000000  celldm(6)=   0.000000

     crystal axes: (cart. coord. in units of alat)
               a(1) = (   0.707107   0.707107   0.000000 )  
               a(2) = (  -0.000000   0.707107   0.707107 )  
               a(3) = (   0.707107  -0.000000   0.707107 )  

     reciprocal axes: (cart. coord. in units 2 pi/alat)
               b(1) = (  0.707107  0.707107 -0.707107 )  
               b(2) = ( -0.707107  0.707107  0.707107 )  
               b(3) = (  0.707107 -0.707107  0.707107 )  


     PseudoPot. # 1 for C  read from file:
     ./C.ccECP.upf
     MD5 check sum: c19abb4557c739f7d8de6f72ec65f7b0
     Pseudo is Norm-conserving, Zval =  4.0
     Generated by new atomic code, or converted to UPF format
     Using radial grid of 1122 points,  1 beta functions with: 
                l(1) =   0

     atomic species   valence    mass     pseudopotential
        C              4.00    12.01100     C ( 1.00)

     48 Sym. Ops., with inversion, found (24 have fractional translation)



   Cartesian axes

     site n.     atom                  positions (alat units)
         1           C   tau(   1) = (   0.0000000   0.0000000   0.0000000  )
         2           C   tau(   2) = (   0.3535534   0.3535534   0.3535534  )

     number of k points=     8
                       cart. coord. in units 2pi/alat
        k(    1) = (   0.0000000   0.0000000   0.0000000), wk =   0.0312500
        k(    2) = (   0.1767767  -0.1767767   0.1767767), wk =   0.2500000
        k(    3) = (  -0.3535534   0.3535534  -0.3535534), wk =   0.1250000
        k(    4) = (   0.0000000   0.0000000   0.3535534), wk =   0.1875000
        k(    5) = (  -0.5303301   0.5303301  -0.1767767), wk =   0.7500000
        k(    6) = (  -0.3535534   0.3535534   0.0000000), wk =   0.3750000
        k(    7) = (   0.0000000   0.0000000  -0.7071068), wk =   0.0937500
        k(    8) = (   0.3535534   0.0000000  -0.7071068), wk =   0.1875000

     Dense  grid:    18053 G-vectors     FFT dimensions: (  40,  40,  40)

     Estimated max dynamical RAM per process >       1.29 MB

     Estimated total dynamical RAM >      15.49 MB

     Initial potential from superposition of free atoms

     starting charge    6.00000, renormalised to    8.00000
     Starting wfcs are    8 randomized atomic wfcs

     total cpu time spent up to now is        0.1 secs

     Self-consistent Calculation

     iteration #  1     ecut=   200.00 Ry     beta= 0.70
     Davidson diagonalization with overlap
     ethr =  1.00E-02,  avg # of iterations =  2.0

     total cpu time spent up to now is        0.1 secs

     total energy              =     -22.38227407 Ry
     Harris-Foulkes estimate   =     -22.42844592 Ry
     estimated scf accuracy    <       0.10130149 Ry

     iteration #  2     ecut=   200.00 Ry     beta= 0.70
     Davidson diagonalization with overlap
     ethr =  1.27E-03,  avg # of iterations =  1.8

     total cpu time spent up to now is        0.2 secs

     total energy              =     -22.38961049 Ry
     Harris-Foulkes estimate   =     -22.39006554 Ry
     estimated scf accuracy    <       0.00205471 Ry

     iteration #  3     ecut=   200.00 Ry     beta= 0.70
     Davidson diagonalization with overlap
     ethr =  2.57E-05,  avg # of iterations =  2.0

     total cpu time spent up to now is        0.2 secs

     total energy              =     -22.39011503 Ry
     Harris-Foulkes estimate   =     -22.39010652 Ry
     estimated scf accuracy    <       0.00002787 Ry

     iteration #  4     ecut=   200.00 Ry     beta= 0.70
     Davidson diagonalization with overlap
     ethr =  3.48E-07,  avg # of iterations =  2.6

     total cpu time spent up to now is        0.3 secs

     total energy              =     -22.39012943 Ry
     Harris-Foulkes estimate   =     -22.39013020 Ry
     estimated scf accuracy    <       0.00000218 Ry

     iteration #  5     ecut=   200.00 Ry     beta= 0.70
     Davidson diagonalization with overlap
     ethr =  2.72E-08,  avg # of iterations =  2.0

     total cpu time spent up to now is        0.3 secs

     End of self-consistent calculation

          k = 0.0000 0.0000 0.0000 (  2229 PWs)   bands (ev):

    -5.4117  24.0601  24.0601  24.0601

          k = 0.1768-0.1768 0.1768 (  2238 PWs)   bands (ev):

    -3.0414  14.5834  21.2796  21.2796

          k =-0.3536 0.3536-0.3536 (  2252 PWs)   bands (ev):

     3.8778   3.9194  19.7374  19.7374

          k = 0.0000 0.0000 0.3536 (  2269 PWs)   bands (ev):

    -2.2501  17.4208  17.4208  18.7237

          k =-0.5303 0.5303-0.1768 (  2257 PWs)   bands (ev):

     3.1423   8.8583  14.3541  16.3392

          k =-0.3536 0.3536 0.0000 (  2269 PWs)   bands (ev):

     0.8425  12.2021  12.5511  19.3168

          k = 0.0000 0.0000-0.7071 (  2272 PWs)   bands (ev):

     6.8812   6.8812  14.1472  14.1472

          k = 0.3536 0.0000-0.7071 (  2244 PWs)   bands (ev):

     8.8499   8.8499  10.5016  10.5016

     highest occupied level (ev):    24.0601

!    total energy              =     -22.39012981 Ry
     Harris-Foulkes estimate   =     -22.39012980 Ry
     estimated scf accuracy    <          8.0E-09 Ry

     The total energy is the sum of the following terms:

     one-electron contribution =      14.18287947 Ry
     hartree contribution      =       1.48425512 Ry
     xc contribution           =      -7.99687073 Ry
     ewald contribution        =     -30.06039366 Ry

     convergence has been achieved in   5 iterations

     Writing output data file pwscf.save/

     init_run     :      0.05s CPU      0.07s WALL (       1 calls)
     electrons    :      0.20s CPU      0.22s WALL (       1 calls)

     Called by init_run:
     wfcinit      :      0.02s CPU      0.02s WALL (       1 calls)
     potinit      :      0.01s CPU      0.01s WALL (       1 calls)
     hinit0       :      0.02s CPU      0.02s WALL (       1 calls)

     Called by electrons:
     c_bands      :      0.13s CPU      0.14s WALL (       5 calls)
     sum_band     :      0.03s CPU      0.03s WALL (       5 calls)
     v_of_rho     :      0.04s CPU      0.04s WALL (       6 calls)
     mix_rho      :      0.00s CPU      0.00s WALL (       5 calls)

     Called by c_bands:
     init_us_2    :      0.00s CPU      0.00s WALL (      88 calls)
     cegterg      :      0.13s CPU      0.14s WALL (      40 calls)

     Called by sum_band:

     Called by *egterg:
     h_psi        :      0.12s CPU      0.13s WALL (     131 calls)
     g_psi        :      0.00s CPU      0.00s WALL (      83 calls)
     cdiaghg      :      0.01s CPU      0.01s WALL (     123 calls)

     Called by h_psi:
     h_psi:pot    :      0.11s CPU      0.13s WALL (     131 calls)
     h_psi:calbec :      0.00s CPU      0.00s WALL (     131 calls)
     vloc_psi     :      0.11s CPU      0.12s WALL (     131 calls)
     add_vuspsi   :      0.00s CPU      0.00s WALL (     131 calls)

     General routines
     calbec       :      0.00s CPU      0.00s WALL (     131 calls)
     fft          :      0.02s CPU      0.03s WALL (      60 calls)
     ffts         :      0.00s CPU      0.00s WALL (       5 calls)
     fftw         :      0.12s CPU      0.13s WALL (    1184 calls)

     Parallel routines
     fft_scatt_xy :      0.02s CPU      0.02s WALL (    1249 calls)
     fft_scatt_yz :      0.05s CPU      0.06s WALL (    1249 calls)

     PWSCF        :     0.29s CPU         0.34s WALL


   This run was terminated on:  13: 8:14  27Sep2021            

=------------------------------------------------------------------------------=
   JOB DONE.
=------------------------------------------------------------------------------=
