#INFO: **** input file is /home/abenali/Work/WorkShop/qmcpack_workshop_2021/qmc_workshop_2021/week4_molecules/Be2/00_dft/runs/Be2/cc-pvtz/LDA/SCF/scf.py ****

#! /usr/bin/env python3

import numpy as np
from numpy import array

### generated pyscfimport text ###
from pyscf import df, scf, dft
### end generated pyscfimport text ###





### generated system text ###
from pyscf import gto as gto_loc
mol = gto_loc.Mole()
mol.verbose  = 5
mol.atom     = '''
               Be   0.00000000   0.00000000   0.00000000
               Be   2.45360300   0.00000000   0.00000000
               '''
mol.basis    = 'cc-pvtz'
mol.unit     = 'A'
mol.charge   = 0
mol.spin     = 0
mol.symmetry = True
mol.build()
### end generated system text ###




### generated calculation text ###
mf = scf.ROKS(mol).density_fit()
mf.max_cycle=200
mf.level_shift=0.0
mf.xc          = 'LDA'
mf.tol         = '1e-10'
e_scf = mf.kernel()
### end generated calculation text ###



### generated conversion text ###
from PyscfToQmcpack import savetoqmcpack
savetoqmcpack(mol,mf,'scf')
### end generated conversion text ###

#INFO: ******************** input file end ********************


System: uname_result(system='Linux', node='abenali', release='5.11.0-38-generic', version='#42~20.04.1-Ubuntu SMP Tue Sep 28 20:41:07 UTC 2021', machine='x86_64', processor='x86_64')  Threads 1
Python 3.7.11 (default, Sep  9 2021, 02:06:38) 
[GCC 9.3.0]
numpy 1.20.3  scipy 1.6.2
Date: Wed Oct 20 12:23:30 2021
PySCF version 2.0.0a
PySCF path  /home/abenali/Work/src/pyscf
GIT HEAD (branch master) 3e8ba375fd4229f000289589fd02193633380853

[CONFIG] conf_file None
[INPUT] verbose = 5
[INPUT] max_memory = 4000 
[INPUT] num. atoms = 2
[INPUT] num. electrons = 8
[INPUT] charge = 0
[INPUT] spin (= nelec alpha-beta = 2S) = 0
[INPUT] symmetry True subgroup None
[INPUT] Mole.unit = A
[INPUT]  1 Be     0.000000000000   0.000000000000   0.000000000000 AA    0.000000000000   0.000000000000   0.000000000000 Bohr
[INPUT]  2 Be     2.453603000000   0.000000000000   0.000000000000 AA    4.636637688411   0.000000000000   0.000000000000 Bohr
[INPUT] ---------------- BASIS SET ---------------- 
[INPUT] l, kappa, [nprim/nctr], expnt,             c_1 c_2 ...
[INPUT] Be
[INPUT] 0    0    [9    /2   ]  6863              0.000236 -4.3e-05
                                1030              0.001826 -0.000333
                                234.7             0.009452 -0.001736
                                66.56             0.037957 -0.007012
                                21.69             0.119965 -0.023126
                                7.734             0.282162 -0.058138
                                2.916             0.427404 -0.114556
                                1.13              0.266278 -0.135908
                                0.1101            -0.007275 0.577441
[INPUT] 0    0    [1    /1   ]  0.2577               1
[INPUT] 0    0    [1    /1   ]  0.04409              1
[INPUT] 1    0    [3    /1   ]  7.436             0.010736
                                1.577             0.062854
                                0.4352            0.24818
[INPUT] 1    0    [1    /1   ]  0.1438               1
[INPUT] 1    0    [1    /1   ]  0.04994              1
[INPUT] 2    0    [1    /1   ]  0.348                1
[INPUT] 2    0    [1    /1   ]  0.1803               1
[INPUT] 3    0    [1    /1   ]  0.325                1

nuclear repulsion = 3.45077641929848
point group symmetry = Dooh
num. orbitals of irrep A1g = 10
num. orbitals of irrep E1gx = 6
num. orbitals of irrep E1gy = 6
num. orbitals of irrep A1u = 10
num. orbitals of irrep E1uy = 6
num. orbitals of irrep E1ux = 6
num. orbitals of irrep E2gx = 3
num. orbitals of irrep E2gy = 3
num. orbitals of irrep E3gx = 1
num. orbitals of irrep E3gy = 1
num. orbitals of irrep E2uy = 3
num. orbitals of irrep E2ux = 3
num. orbitals of irrep E3uy = 1
num. orbitals of irrep E3ux = 1
number of shells = 18
number of NR pGTOs = 86
number of NR cGTOs = 60
basis = cc-pvtz
ecp = {}
CPU time:         0.60


******** <class 'pyscf.df.df_jk.density_fit.<locals>.DFHF'> ********
method = DFHF-SymAdaptedROKS-SymAdaptedROHF-ROHF-RHF
initial guess = minao
damping factor = 0
level_shift factor = 0.0
DIIS = <class 'pyscf.scf.diis.CDIIS'>
diis_start_cycle = 1
diis_space = 8
SCF conv_tol = 1e-09
SCF conv_tol_grad = None
SCF max_cycles = 200
direct_scf = True
direct_scf_tol = 1e-13
chkfile to save SCF result = /home/abenali/Work/WorkShop/qmcpack_workshop_2021/qmc_workshop_2021/week4_molecules/Be2/00_dft/runs/Be2/cc-pvtz/LDA/SCF/tmptc054dpv
max_memory 4000 MB (current use 112 MB)
num. doubly occ = 4  num. singly occ = 0
XC library pyscf.dft.libxc version 5.1.5
    S. Lehtola, C. Steigemann, M. J. Oliveira, and M. A. Marques, SoftwareX 7, 1 (2018)
XC functionals = LDA
    P. A. M. Dirac, Math. Proc. Cambridge Philos. Soc. 26, 376 (1930)
    F. Bloch, Z. Phys. 57, 545 (1929)
radial grids: 
    Treutler-Ahlrichs [JCP 102, 346 (1995); DOI:10.1063/1.469408] (M4) radial grids
    
becke partition: Becke, JCP 88, 2547 (1988); DOI:10.1063/1.454033
pruning grids: <function nwchem_prune at 0x7f867df6fd40>
grids dens level: 3
symmetrized grids: True
atomic radii adjust function: <function treutler_atomic_radii_adjust at 0x7f867df78200>
small_rho_cutoff = 1e-07
Freeze 0 electrons in irreps []
    8 free electrons in irreps A1g E1gx E1gy A1u E1uy E1ux E2gx E2gy E3gx E3gy E2uy E2ux E3uy E3ux
Set gradient conv threshold to 3.16228e-05
atom Be rad-grids = 75, ang-grids = [ 50  50  50  50  50  50  50  50  50  50  50  50  50  50  50  50  50  50
  50  50  50  50  50  50  50  50  86  86  86  86  86  86  86  86  86  86
  86 266 266 266 266 266 266 266 266 302 302 302 302 302 302 302 302 302
 302 302 302 302 302 302 302 302 302 302 302 302 266 266 266 266 266 266
 266 266 266]
tot grids = 26220
Drop grids 790
    CPU time for setting up grids      0.06 sec, wall time      0.06 sec
nelec by numeric integration = [3.99998754 3.99998754]
    CPU time for vxc      0.14 sec, wall time      0.14 sec
Even tempered Gaussians are generated as DF auxbasis for  Be
  ETB auxbasis for Be  [[0, [1444.74112, 1]], [0, [722.37056, 1]], [0, [361.18528, 1]], [0, [180.59264, 1]], [0, [90.29632, 1]], [0, [45.14816, 1]], [0, [22.57408, 1]], [0, [11.28704, 1]], [0, [5.64352, 1]], [0, [2.82176, 1]], [0, [1.41088, 1]], [0, [0.70544, 1]], [0, [0.35272, 1]], [0, [0.17636, 1]], [0, [0.08818, 1]], [1, [96.10019540145795, 1]], [1, [48.050097700728976, 1]], [1, [24.025048850364488, 1]], [1, [12.012524425182244, 1]], [1, [6.006262212591122, 1]], [1, [3.003131106295561, 1]], [1, [1.5015655531477805, 1]], [1, [0.7507827765738903, 1]], [1, [0.3753913882869451, 1]], [1, [0.18769569414347256, 1]], [1, [0.09384784707173628, 1]], [2, [12.78464, 1]], [2, [6.39232, 1]], [2, [3.19616, 1]], [2, [1.59808, 1]], [2, [0.79904, 1]], [2, [0.39952, 1]], [2, [0.19976, 1]], [2, [0.09988, 1]]]
num shells = 68, num cGTOs = 176
    CPU time for df-vj      0.05 sec, wall time      0.05 sec
E1 = -45.155223272960676  Ecoul = 17.907069216969116  Exc = -4.690629540111129
init E= -28.4880071768042
cond(S) = 1114.8843271075195
    CPU time for initialize scf      0.28 sec, wall time      0.29 sec
HOMO (A1u) = -0.11919396758151  LUMO (E1ux) = -0.0658377756830179
double occ irrep_nelec = [2, 0, 0, 2, 0, 0, 0, 0, 0, 0, 0, 0, 0, 0]
single occ irrep_nelec = [0, 0, 0, 0, 0, 0, 0, 0, 0, 0, 0, 0, 0, 0]
  Roothaan mo_energy =
[-3.72420071 -0.21669108 -0.06041537  0.11895435  0.13276761  0.48880884
  0.81954815  1.03836828  1.27595535  1.61450654  0.00484064  0.17083772
  0.53748307  0.82639172  1.29490342  1.67011147  0.00484064  0.17083772
  0.53748307  0.82639172  1.29490342  1.67011147 -3.72424271 -0.11919397
  0.08888987  0.15335229  0.22965345  0.61199253  0.82284299  1.25060832
  1.4737953   4.35853122 -0.06583778  0.13767968  0.32237711  0.7714482
  1.00756018  1.28772585 -0.06583778  0.13767968  0.32237711  0.7714482
  1.00756018  1.28772585  0.30381323  1.01895956  1.17665625  0.3038133
  1.01895956  1.17665453  1.15880862  1.15880862  0.40035474  1.20484713
  1.33173227  0.40035465  1.20484855  1.33173251  1.09393869  1.09393869]
nelec by numeric integration = [4.00000016 4.00000016]
    CPU time for vxc      0.10 sec, wall time      0.11 sec
    CPU time for df-vj      0.04 sec, wall time      0.04 sec
E1 = -44.840224627682524  Ecoul = 17.520583566570668  Exc = -4.589910090051233
cycle= 1 E= -28.4587747318646  delta_E= 0.0292  |g|= 0.0538  |ddm|= 0.696
    CPU time for cycle= 1      0.16 sec, wall time      0.16 sec
HOMO (A1u) = -0.135117222053365  LUMO (E1ux) = -0.0809484965629916
double occ irrep_nelec = [2, 0, 0, 2, 0, 0, 0, 0, 0, 0, 0, 0, 0, 0]
single occ irrep_nelec = [0, 0, 0, 0, 0, 0, 0, 0, 0, 0, 0, 0, 0, 0]
  Roothaan mo_energy =
[-3.79556046 -0.23353772 -0.07452032  0.10685485  0.12202168  0.47857613
  0.79740479  1.02241199  1.25028226  1.5966843  -0.01037084  0.15738289
  0.52581401  0.80238162  1.2787917   1.65607488 -0.01037084  0.15738289
  0.52581401  0.80238162  1.2787917   1.65607488 -3.79556149 -0.13511722
  0.07736998  0.14142465  0.2152075   0.59837942  0.79958894  1.23479149
  1.45787852  4.31897221 -0.0809485   0.12570651  0.309109    0.74685333
  0.99361959  1.27204719 -0.0809485   0.12570651  0.309109    0.74685333
  0.99361959  1.27204719  0.29043343  1.00436438  1.15917272  0.29043347
  1.00436438  1.15917109  1.14334147  1.14334147  0.38712739  1.18832564
  1.31632097  0.38712734  1.18832695  1.31632132  1.078494    1.078494  ]
nelec by numeric integration = [4.00000016 4.00000016]
    CPU time for vxc      0.09 sec, wall time      0.09 sec
    CPU time for df-vj      0.04 sec, wall time      0.04 sec
E1 = -44.929273368782276  Ecoul = 17.63271052129599  Exc = -4.613401236295802
cycle= 2 E= -28.4591876644836  delta_E= -0.000413  |g|= 0.0131  |ddm|= 0.0771
    CPU time for cycle= 2      0.14 sec, wall time      0.14 sec
HOMO (A1u) = -0.131550882897605  LUMO (E1uy) = -0.0771893176985381
double occ irrep_nelec = [2, 0, 0, 2, 0, 0, 0, 0, 0, 0, 0, 0, 0, 0]
single occ irrep_nelec = [0, 0, 0, 0, 0, 0, 0, 0, 0, 0, 0, 0, 0, 0]
  Roothaan mo_energy =
[-3.78097022 -0.22838006 -0.07081627  0.10950844  0.1242143   0.48142144
  0.80293695  1.0273418   1.25596226  1.6017715  -0.00702522  0.16005513
  0.52857967  0.80790494  1.28333114  1.66002207 -0.00702522  0.16005513
  0.52857967  0.80790494  1.28333114  1.66002207 -3.7809758  -0.13155088
  0.07981104  0.14380038  0.21903297  0.60211193  0.80449411  1.23890964
  1.46290639  4.32795589 -0.07718932  0.12839885  0.31238388  0.75254838
  0.99820072  1.27601557 -0.07718932  0.12839885  0.31238388  0.75254838
  0.99820072  1.27601557  0.29354092  1.00823926  1.16356372  0.29354097
  1.00823926  1.1635621   1.14701136  1.14701136  0.38994386  1.19284561
  1.31995477  0.3899438   1.19284693  1.31995508  1.08220733  1.08220733]
nelec by numeric integration = [4.00000016 4.00000016]
    CPU time for vxc      0.08 sec, wall time      0.08 sec
    CPU time for df-vj      0.04 sec, wall time      0.04 sec
E1 = -44.897127206993154  Ecoul = 17.59426199185127  Exc = -4.607154828728073
cycle= 3 E= -28.4592436245715  delta_E= -5.6e-05  |g|= 0.00298  |ddm|= 0.019
    CPU time for cycle= 3      0.13 sec, wall time      0.14 sec
HOMO (A1u) = -0.131595590498498  LUMO (E1ux) = -0.0775653579979984
double occ irrep_nelec = [2, 0, 0, 2, 0, 0, 0, 0, 0, 0, 0, 0, 0, 0]
single occ irrep_nelec = [0, 0, 0, 0, 0, 0, 0, 0, 0, 0, 0, 0, 0, 0]
  Roothaan mo_energy =
[-3.78073888 -0.22913268 -0.07103211  0.10934628  0.12402593  0.48125642
  0.80256829  1.02675295  1.25578182  1.6013981  -0.00720283  0.15989392
  0.52845868  0.80763358  1.28290088  1.65971471 -0.00720283  0.15989392
  0.52845868  0.80763358  1.28290088  1.65971471 -3.78074517 -0.13159559
  0.07966715  0.14376043  0.21864444  0.60181224  0.80452002  1.23871981
  1.46230179  4.32766279 -0.07756536  0.12814565  0.31208158  0.75229062
  0.99745733  1.2758327  -0.07756536  0.12814565  0.31208158  0.75229062
  0.99745733  1.2758327   0.29320133  1.00781839  1.16319737  0.29320138
  1.00781838  1.16319575  1.14669467  1.14669467  0.38974219  1.19237268
  1.31973411  0.38974214  1.192374    1.31973442  1.08186178  1.08186178]
nelec by numeric integration = [4.00000016 4.00000016]
    CPU time for vxc      0.07 sec, wall time      0.07 sec
    CPU time for df-vj      0.04 sec, wall time      0.04 sec
E1 = -44.90179581912974  Ecoul = 17.599258765026654  Exc = -4.6074903539296175
cycle= 4 E= -28.4592509887342  delta_E= -7.36e-06  |g|= 0.000287  |ddm|= 0.00485
    CPU time for cycle= 4      0.12 sec, wall time      0.12 sec
HOMO (A1u) = -0.131733579742082  LUMO (E1ux) = -0.0776502565995146
double occ irrep_nelec = [2, 0, 0, 2, 0, 0, 0, 0, 0, 0, 0, 0, 0, 0]
single occ irrep_nelec = [0, 0, 0, 0, 0, 0, 0, 0, 0, 0, 0, 0, 0, 0]
  Roothaan mo_energy =
[-3.78104625 -0.22922283 -0.07116719  0.10926679  0.1239453   0.48115531
  0.802421    1.02662823  1.25564496  1.60125234 -0.00730783  0.15980918
  0.52835787  0.80749524  1.28277255  1.65959492 -0.00730783  0.15980918
  0.52835787  0.80749524  1.28277255  1.65959492 -3.7810525  -0.13173358
  0.07957586  0.14366598  0.2185451   0.60170627  0.80434487  1.23859153
  1.4621755   4.32747351 -0.07765026  0.12807872  0.31198793  0.75214306
  0.99736637  1.27569467 -0.07765026  0.12807872  0.31198793  0.75214306
  0.99736637  1.27569467  0.29313562  1.00771713  1.16308457  0.29313567
  1.00771712  1.16308295  1.1466012   1.1466012   0.38966173  1.19227283
  1.31961366  0.38966168  1.19227415  1.31961397  1.08177139  1.08177139]
nelec by numeric integration = [4.00000016 4.00000016]
    CPU time for vxc      0.08 sec, wall time      0.08 sec
    CPU time for df-vj      0.03 sec, wall time      0.04 sec
E1 = -44.90214738342214  Ecoul = 17.599713909639885  Exc = -4.607593985108787
cycle= 5 E= -28.4592510395926  delta_E= -5.09e-08  |g|= 2.02e-05  |ddm|= 0.00109
    CPU time for cycle= 5      0.13 sec, wall time      0.13 sec
HOMO (A1u) = -0.131732715314104  LUMO (E1ux) = -0.0776512511357236
double occ irrep_nelec = [2, 0, 0, 2, 0, 0, 0, 0, 0, 0, 0, 0, 0, 0]
single occ irrep_nelec = [0, 0, 0, 0, 0, 0, 0, 0, 0, 0, 0, 0, 0, 0]
  Roothaan mo_energy =
[-3.78105419 -0.22922551 -0.0711668   0.10926679  0.12394406  0.481157
  0.80241969  1.0266269   1.25564339  1.60125288 -0.00730808  0.15980893
  0.52835863  0.80749425  1.282772    1.65959568 -0.00730808  0.15980893
  0.52835863  0.80749425  1.282772    1.65959568 -3.78106044 -0.13173272
  0.0795753   0.14366719  0.21854433  0.60170667  0.80434518  1.2385932
  1.4621745   4.32746871 -0.07765125  0.12807828  0.31198694  0.75214205
  0.99736383  1.27569572 -0.07765125  0.12807828  0.31198694  0.75214205
  0.99736383  1.27569572  0.29313449  1.0077157   1.16308398  0.29313454
  1.0077157   1.16308236  1.14660054  1.14660054  0.38966122  1.19227255
  1.31961303  0.38966117  1.19227386  1.31961335  1.08177056  1.08177056]
nelec by numeric integration = [4.00000016 4.00000016]
    CPU time for vxc      0.07 sec, wall time      0.07 sec
    CPU time for df-vj      0.03 sec, wall time      0.03 sec
E1 = -44.90217120330899  Ecoul = 17.599741738425468  Exc = -4.607597994255922
cycle= 6 E= -28.459251039841  delta_E= -2.48e-10  |g|= 1.09e-06  |ddm|= 2.55e-05
    CPU time for cycle= 6      0.12 sec, wall time      0.12 sec
HOMO (A1u) = -0.131733243700504  LUMO (E1ux) = -0.0776519146855503
double occ irrep_nelec = [2, 0, 0, 2, 0, 0, 0, 0, 0, 0, 0, 0, 0, 0]
single occ irrep_nelec = [0, 0, 0, 0, 0, 0, 0, 0, 0, 0, 0, 0, 0, 0]
  Roothaan mo_energy =
[-3.78105498 -0.22922642 -0.07116738  0.10926633  0.12394367  0.48115652
  0.80241889  1.02662609  1.25564274  1.60125213 -0.00730862  0.1598085
  0.52835816  0.80749348  1.28277123  1.65959501 -0.00730862  0.1598085
  0.52835816  0.80749348  1.28277123  1.65959501 -3.78106122 -0.13173324
  0.07957492  0.14366683  0.21854371  0.60170608  0.8043446   1.23859257
  1.46217365  4.32746791 -0.07765191  0.1280778   0.31198634  0.75214126
  0.99736297  1.27569506 -0.07765191  0.1280778   0.31198634  0.75214126
  0.99736297  1.27569506  0.29313391  1.00771499  1.16308322  0.29313396
  1.00771499  1.1630816   1.14659987  1.14659987  0.38966072  1.19227176
  1.31961239  0.38966066  1.19227308  1.3196127   1.08176989  1.08176989]
nelec by numeric integration = [4.00000016 4.00000016]
    CPU time for vxc      0.08 sec, wall time      0.08 sec
    CPU time for df-vj      0.04 sec, wall time      0.04 sec
E1 = -44.90217571169584  Ecoul = 17.59974677070614  Exc = -4.607598518149896
Extra cycle  E= -28.4592510398411  delta_E= -1.56e-13  |g|= 8.87e-07  |ddm|= 3.12e-06
    CPU time for scf_cycle      1.21 sec, wall time      1.23 sec
    CPU time for SCF      1.21 sec, wall time      1.23 sec
converged SCF energy = -28.4592510398411
Using Python 3.x
Wavefunction successfully saved to QMCPACK HDF5 Format
Use: "convert4qmc -pyscf  scf.h5" to generate QMCPACK input files
