#INFO: **** input file is /home/abenali/Work/WorkShop/qmcpack_workshop_2021/qmc_workshop_2021/week4_molecules/03_qmc_ccECP/runs/O2/Dist_0.9/SCF/scf.py ****

#! /usr/bin/env python3

import numpy as np
from numpy import array

### generated pyscfimport text ###
from pyscf import df, scf, dft
### end generated pyscfimport text ###





### generated system text ###
from pyscf import gto as gto_loc
mol = gto_loc.Mole()
mol.verbose  = 5
mol.atom     = '''
               O    0.00000000   0.00000000   0.00000000
               O    0.00000000   0.00000000   0.90000000
               '''
mol.basis    = 'ccecp-ccpvtz'
mol.unit     = 'A'
mol.ecp      = 'ccecp'
mol.charge   = 0
mol.spin     = 2
mol.symmetry = True
mol.build()
### end generated system text ###




### generated calculation text ###
mf = scf.ROKS(mol).density_fit()
mf.max_cycle=200
mf.level_shift=0.0
mf.xc          = 'SCAN'
mf.tol         = '1e-10'
e_scf = mf.kernel()
### end generated calculation text ###



### generated conversion text ###
from PyscfToQmcpack import savetoqmcpack
savetoqmcpack(mol,mf,'scf')
### end generated conversion text ###

#INFO: ******************** input file end ********************


System: uname_result(system='Linux', node='abenali', release='5.11.0-38-generic', version='#42~20.04.1-Ubuntu SMP Tue Sep 28 20:41:07 UTC 2021', machine='x86_64', processor='x86_64')  Threads 1
Python 3.7.11 (default, Sep  9 2021, 02:06:38) 
[GCC 9.3.0]
numpy 1.20.3  scipy 1.6.2
Date: Mon Oct 25 18:09:01 2021
PySCF version 2.0.0a
PySCF path  /home/abenali/Work/src/pyscf
GIT HEAD (branch master) 3e8ba375fd4229f000289589fd02193633380853

[CONFIG] conf_file None
[INPUT] verbose = 5
[INPUT] max_memory = 4000 
[INPUT] num. atoms = 2
[INPUT] num. electrons = 12
[INPUT] charge = 0
[INPUT] spin (= nelec alpha-beta = 2S) = 2
[INPUT] symmetry True subgroup None
[INPUT] Mole.unit = A
[INPUT]  1 O      0.000000000000   0.000000000000   0.000000000000 AA    0.000000000000   0.000000000000   0.000000000000 Bohr
[INPUT]  2 O      0.000000000000   0.000000000000   0.900000000000 AA    0.000000000000   0.000000000000   1.700753512109 Bohr
[INPUT] ---------------- BASIS SET ---------------- 
[INPUT] l, kappa, [nprim/nctr], expnt,             c_1 c_2 ...
[INPUT] O
[INPUT] 0    0    [9    /1   ]  54.775216         -0.0012444
                                25.616801         0.010733
                                11.980245         0.0018889
                                6.992317          -0.1742537
                                2.620277          0.0017622
                                1.225429          0.3161846
                                0.577797          0.4512023
                                0.268022          0.3121534
                                0.125346          0.0511167
[INPUT] 0    0    [1    /1   ]  1.686633             1
[INPUT] 0    0    [1    /1   ]  0.237997             1
[INPUT] 1    0    [9    /1   ]  22.217266         0.0104866
                                10.74755          0.0366435
                                5.315785          0.0803674
                                2.660761          0.162701
                                1.331816          0.2377791
                                0.678626          0.2811422
                                0.333673          0.2643189
                                0.167017          0.1466014
                                0.083598          0.0458145
[INPUT] 1    0    [1    /1   ]  0.600621             1
[INPUT] 1    0    [1    /1   ]  0.184696             1
[INPUT] 2    0    [1    /1   ]  2.404278             1
[INPUT] 2    0    [1    /1   ]  0.66934              1
[INPUT] 3    0    [1    /1   ]  1.423104             1

nuclear repulsion = 21.1670884368
point group symmetry = Dooh
num. orbitals of irrep A1g = 9
num. orbitals of irrep E1gx = 6
num. orbitals of irrep E1gy = 6
num. orbitals of irrep A1u = 9
num. orbitals of irrep E1uy = 6
num. orbitals of irrep E1ux = 6
num. orbitals of irrep E2gx = 3
num. orbitals of irrep E2gy = 3
num. orbitals of irrep E3gx = 1
num. orbitals of irrep E3gy = 1
num. orbitals of irrep E2uy = 3
num. orbitals of irrep E2ux = 3
num. orbitals of irrep E3uy = 1
num. orbitals of irrep E3ux = 1
number of shells = 18
number of NR pGTOs = 122
number of NR cGTOs = 58
basis = ccecp-ccpvtz
ecp = ccecp
CPU time:         0.27


******** <class 'pyscf.df.df_jk.density_fit.<locals>.DFHF'> ********
method = DFHF-SymAdaptedROKS-SymAdaptedROHF-ROHF-RHF
initial guess = minao
damping factor = 0
level_shift factor = 0.0
DIIS = <class 'pyscf.scf.diis.CDIIS'>
diis_start_cycle = 1
diis_space = 8
SCF conv_tol = 1e-09
SCF conv_tol_grad = None
SCF max_cycles = 200
direct_scf = True
direct_scf_tol = 1e-13
chkfile to save SCF result = /home/abenali/Work/WorkShop/qmcpack_workshop_2021/qmc_workshop_2021/week4_molecules/03_qmc_ccECP/runs/O2/Dist_0.9/SCF/tmpye9tgfle
max_memory 4000 MB (current use 112 MB)
num. doubly occ = 5  num. singly occ = 2
XC library pyscf.dft.libxc version 5.1.5
    S. Lehtola, C. Steigemann, M. J. Oliveira, and M. A. Marques, SoftwareX 7, 1 (2018)
XC functionals = SCAN
    J. Sun, A. Ruzsinszky, and J. P. Perdew, Phys. Rev. Lett. 115, 036402 (2015)
    J. Sun, A. Ruzsinszky, and J. P. Perdew, Phys. Rev. Lett. 115, 036402 (2015)
radial grids: 
    Treutler-Ahlrichs [JCP 102, 346 (1995); DOI:10.1063/1.469408] (M4) radial grids
    
becke partition: Becke, JCP 88, 2547 (1988); DOI:10.1063/1.454033
pruning grids: <function nwchem_prune at 0x7f105b3c3dd0>
grids dens level: 3
symmetrized grids: True
atomic radii adjust function: <function treutler_atomic_radii_adjust at 0x7f105b3cc290>
small_rho_cutoff = 1e-07
Freeze 0 electrons in irreps []
    12 free electrons in irreps A1g E1gx E1gy A1u E1uy E1ux E2gx E2gy E3gx E3gy E2uy E2ux E3uy E3ux
Set gradient conv threshold to 3.16228e-05
atom O rad-grids = 75, ang-grids = [ 50  50  50  50  50  50  50  50  50  50  50  50  50  50  50  50  50  50
  50  50  50  50  86  86  86  86  86  86  86  86  86 266 266 266 266 266
 266 266 302 302 302 302 302 302 302 302 302 302 302 302 302 302 302 302
 302 302 302 266 266 266 266 266 266 266 266 266 266 266 266 266 266 266
 266 266 266]
tot grids = 28524
Drop grids 2480
    CPU time for setting up grids      0.03 sec, wall time      0.03 sec
nelec by numeric integration = [6.00000008 6.00000008]
    CPU time for vxc      0.30 sec, wall time      0.30 sec
Even tempered Gaussians are generated as DF auxbasis for  O
  ETB auxbasis for O  [[0, [64.177152, 1]], [0, [32.088576, 1]], [0, [16.044288, 1]], [0, [8.022144, 1]], [0, [4.011072, 1]], [0, [2.005536, 1]], [0, [1.002768, 1]], [0, [0.501384, 1]], [0, [0.250692, 1]], [1, [52.41108427692326, 1]], [1, [26.20554213846163, 1]], [1, [13.102771069230815, 1]], [1, [6.551385534615408, 1]], [1, [3.275692767307704, 1]], [1, [1.637846383653852, 1]], [1, [0.818923191826926, 1]], [1, [0.409461595913463, 1]], [1, [0.2047307979567315, 1]], [2, [42.802176, 1]], [2, [21.401088, 1]], [2, [10.700544, 1]], [2, [5.350272, 1]], [2, [2.675136, 1]], [2, [1.337568, 1]], [2, [0.668784, 1]], [2, [0.334392, 1]], [2, [0.167196, 1]], [3, [7.569571782318998, 1]], [3, [3.784785891159499, 1]], [3, [1.8923929455797495, 1]], [3, [0.9461964727898747, 1]], [3, [0.47309823639493737, 1]], [4, [5.35472, 1]], [4, [2.67736, 1]], [4, [1.33868, 1]]]
num shells = 70, num cGTOs = 286
    CPU time for df-vj      0.05 sec, wall time      0.05 sec
E1 = -91.85774407470879  Ecoul = 45.62023142089989  Exc = -6.944397072766719
init E= -32.0148212897756
cond(S) = 2295.67083759945
    CPU time for initialize scf      0.41 sec, wall time      0.41 sec
HOMO (E1gx) = -0.163038131235281  LUMO (A1u) = 0.276124596140044
double occ irrep_nelec = [2, 0, 0, 1, 1, 1, 0, 0, 0, 0, 0, 0, 0, 0]
single occ irrep_nelec = [0, 1, 1, 0, 0, 0, 0, 0, 0, 0, 0, 0, 0, 0]
                  Roothaan           | alpha              | beta
  Highest 2-occ = -0.668221628933559 |  -0.66822162893356 |  -0.66822162893356
  Lowest 0-occ =   0.276124596140044 |  0.276124596140074 |  0.276124596140074
  1-occ =         -0.163038131235281 | -0.163038131235281 | -0.163038131235281
  1-occ =         -0.163038131235282 | -0.163038131235282 | -0.163038131235282
  Roothaan mo_energy =
[-1.73018149 -0.66822163  0.41579825  0.68000424  2.01710718  3.61882844
  5.69548593  8.26271918 15.40950238 -0.16303813  0.55136916  2.34017612
  3.25515348  6.25537116  8.7596329  -0.16303813  0.55136916  2.34017612
  3.25515348  6.25537116  8.7596329  -0.79008557  0.2761246   0.87443295
  1.11774031  2.5299276   3.80354766  6.40684764  8.1919459  27.77367092
 -0.74772282  0.35904473  1.50548417  2.69690113  4.96256379  7.06897483
 -0.74772282  0.35904473  1.50548417  2.69690113  4.96256379  7.06897483
  1.13627588  4.59608178  6.22723313  1.1362862   4.5960606   6.22723076
  5.46687695  5.46687695  1.79967208  6.43083149  6.7145325   1.79974348
  6.43090935  6.71463474  4.68173031  4.68173031]
nelec by numeric integration = [7.00000008 5.00000007]
    CPU time for vxc      0.24 sec, wall time      0.24 sec
    CPU time for df-vj      0.05 sec, wall time      0.05 sec
E1 = -93.55542308319342  Ecoul = 48.21820937104834  Exc = -7.433442745042393
cycle= 1 E= -31.6035680203875  delta_E= 0.411  |g|= 0.454  |ddm|= 2.77
    CPU time for cycle= 1      0.30 sec, wall time      0.30 sec
HOMO (E1gx) = 0.0238917022180517  LUMO (A1u) = 0.357804484144862
double occ irrep_nelec = [2, 0, 0, 1, 1, 1, 0, 0, 0, 0, 0, 0, 0, 0]
single occ irrep_nelec = [0, 1, 1, 0, 0, 0, 0, 0, 0, 0, 0, 0, 0, 0]
                  Roothaan           | alpha              | beta
  Highest 2-occ = -0.451564609854331 | -0.477700266434488 | -0.425428953274175
  Lowest 0-occ =   0.357804484144862 |  0.314748095050068 |  0.400860873239661
  1-occ =         0.0238917022180517 | -0.0433098448525888 | 0.0839430183289478
  1-occ =         0.0238917022180511 | -0.0433098448525891 | 0.0839430183289467
  Roothaan mo_energy =
[-1.47074566e+00 -4.51564610e-01  5.01175552e-01  8.09380500e-01
  2.17231931e+00  3.78831122e+00  5.94572945e+00  8.45545610e+00
  1.57210416e+01  2.38917022e-02  6.42569657e-01  2.46932194e+00
  3.41887983e+00  6.42593543e+00  8.93545979e+00  2.38917022e-02
  6.42569657e-01  2.46932194e+00  3.41887983e+00  6.42593543e+00
  8.93545979e+00 -5.91798574e-01  3.57804484e-01  1.06080954e+00
  1.22344043e+00  2.75008981e+00  3.98493700e+00  6.55679071e+00
  8.45588161e+00  2.81425916e+01 -5.49460538e-01  4.33836053e-01
  1.63640436e+00  2.89731160e+00  5.16157595e+00  7.24691114e+00
 -5.49460538e-01  4.33836053e-01  1.63640436e+00  2.89731160e+00
  5.16157595e+00  7.24691114e+00  1.23839973e+00  4.74186009e+00
  6.44506850e+00  1.23803583e+00  4.74185183e+00  6.44497221e+00
  5.59496658e+00  5.59496658e+00  1.89460752e+00  6.64229680e+00
  6.85351347e+00  1.89452005e+00  6.64241647e+00  6.85255659e+00
  4.81081183e+00  4.81081183e+00]
nelec by numeric integration = [7.00000007 5.00000006]
    CPU time for vxc      0.24 sec, wall time      0.24 sec
    CPU time for df-vj      0.05 sec, wall time      0.05 sec
E1 = -91.63780386723047  Ecoul = 45.906747932813005  Exc = -7.047452152686554
cycle= 2 E= -31.611419650304  delta_E= -0.00785  |g|= 0.372  |ddm|= 0.947
    CPU time for cycle= 2      0.30 sec, wall time      0.30 sec
HOMO (E1gx) = -0.0620560052670372  LUMO (A1u) = 0.331101246731962
double occ irrep_nelec = [2, 0, 0, 1, 1, 1, 0, 0, 0, 0, 0, 0, 0, 0]
single occ irrep_nelec = [0, 1, 1, 0, 0, 0, 0, 0, 0, 0, 0, 0, 0, 0]
                  Roothaan           | alpha              | beta
  Highest 2-occ = -0.541427183283513 | -0.647820704173083 | -0.597322204814768
  Lowest 0-occ =   0.331101246731962 |  0.269448191221068 |  0.344722038362039
  1-occ =         -0.0620560052670372 | -0.202601825174753 | -0.0752208129938558
  1-occ =         -0.0620560052670375 | -0.202601825174753 | -0.075220812993856
  Roothaan mo_energy =
[-1.59369464 -0.54142718  0.4691118   0.74808813  2.11027656  3.70414046
  5.83250417  8.35572502 15.58046505 -0.06205601  0.60326488  2.41501431
  3.33738237  6.34205352  8.83705782 -0.06205601  0.60326488  2.41501431
  3.33738237  6.34205352  8.83705782 -0.67412157  0.33110125  0.97965224
  1.17614311  2.65226467  3.90979053  6.47776396  8.33076291 27.97967998
 -0.64302934  0.39777296  1.57569751  2.80441576  5.05595042  7.15647518
 -0.64302934  0.39777296  1.57569751  2.80441576  5.05595042  7.15647518
  1.18083203  4.66159584  6.34073128  1.18050971  4.66150932  6.34088653
  5.52392465  5.52392465  1.8429214   6.54307383  6.77357356  1.84281251
  6.54296695  6.77258285  4.73767835  4.73767835]
nelec by numeric integration = [7.00000008 5.00000007]
    CPU time for vxc      0.23 sec, wall time      0.23 sec
    CPU time for df-vj      0.05 sec, wall time      0.05 sec
E1 = -92.63808024488463  Ecoul = 47.069490646454064  Exc = -7.235367870803378
cycle= 3 E= -31.6368690324339  delta_E= -0.0254  |g|= 0.0211  |ddm|= 0.455
    CPU time for cycle= 3      0.29 sec, wall time      0.29 sec
HOMO (E1gx) = -0.0606568744321611  LUMO (A1u) = 0.33065443824864
double occ irrep_nelec = [2, 0, 0, 1, 1, 1, 0, 0, 0, 0, 0, 0, 0, 0]
single occ irrep_nelec = [0, 1, 1, 0, 0, 0, 0, 0, 0, 0, 0, 0, 0, 0]
                  Roothaan           | alpha              | beta
  Highest 2-occ = -0.542330663890922 | -0.564430471851886 | -0.512964515671593
  Lowest 0-occ =    0.33065443824864 |  0.292348491878388 |  0.370965131278359
  1-occ =         -0.0606568744321611 | -0.121584018385509 | 0.00916174042993421
  1-occ =         -0.0606568744321619 |  -0.12158401838551 | 0.00916174042993289
  Roothaan mo_energy =
[-1.58783759 -0.54233066  0.4688869   0.74868268  2.11045818  3.70642835
  5.83332113  8.35620369 15.58150912 -0.06065687  0.60412462  2.41561411
  3.33916516  6.34166465  8.83961091 -0.06065687  0.60412462  2.41561411
  3.33916516  6.34166465  8.83961091 -0.67505663  0.33065444  0.98023398
  1.17760722  2.65325368  3.9100639   6.4783225   8.33277371 27.97971426
 -0.63983989  0.39950443  1.5769117   2.80652556  5.0595707   7.15655888
 -0.63983989  0.39950443  1.5769117   2.80652556  5.0595707   7.15655888
  1.18371739  4.66474707  6.3426192   1.18336599  4.66470253  6.34265712
  5.52616252  5.52616252  1.8443079   6.54418078  6.77571854  1.84425372
  6.54422989  6.77465428  4.74059339  4.74059339]
nelec by numeric integration = [7.00000008 5.00000007]
    CPU time for vxc      0.24 sec, wall time      0.24 sec
    CPU time for df-vj      0.05 sec, wall time      0.05 sec
E1 = -92.62576287802291  Ecoul = 47.05639291347495  Exc = -7.23464900156462
cycle= 4 E= -31.6369305293126  delta_E= -6.15e-05  |g|= 0.0071  |ddm|= 0.0101
    CPU time for cycle= 4      0.29 sec, wall time      0.29 sec
HOMO (E1gx) = -0.0585629280164954  LUMO (A1u) = 0.331173437092821
double occ irrep_nelec = [2, 0, 0, 1, 1, 1, 0, 0, 0, 0, 0, 0, 0, 0]
single occ irrep_nelec = [0, 1, 1, 0, 0, 0, 0, 0, 0, 0, 0, 0, 0, 0]
                  Roothaan           | alpha              | beta
  Highest 2-occ = -0.540400233561982 | -0.564516011756977 | -0.513017702460204
  Lowest 0-occ =   0.331173437092821 |  0.292457259432949 |  0.370837639647212
  1-occ =         -0.0585629280164954 | -0.122273466144955 |  0.008437637741516
  1-occ =         -0.0585629280164955 | -0.122273466144955 | 0.00843763774151665
  Roothaan mo_energy =
[-1.58528052 -0.54040023  0.46944732  0.75005816  2.11192043  3.70826566
  5.83554968  8.35827395 15.58428165 -0.05856293  0.60502328  2.41704578
  3.34100295  6.34366515  8.84181928 -0.05856293  0.60502328  2.41704578
  3.34100295  6.34366515  8.84181928 -0.67314555  0.33117344  0.98208332
  1.17873484  2.65524335  3.91185865  6.48022056  8.33520621 27.98287222
 -0.63768664  0.40042317  1.57844752  2.80855905  5.06185584  7.1585813
 -0.63768664  0.40042317  1.57844752  2.80855905  5.06185584  7.1585813
  1.18518287  4.66663249  6.3450043   1.18481708  4.66660566  6.34499368
  5.52795178  5.52795178  1.84563382  6.54639379  6.7776655   1.84560216
  6.54650715  6.77657724  4.74238574  4.74238574]
nelec by numeric integration = [7.00000008 5.00000007]
    CPU time for vxc      0.23 sec, wall time      0.23 sec
    CPU time for df-vj      0.05 sec, wall time      0.05 sec
E1 = -92.60845745362707  Ecoul = 47.03570484125375  Exc = -7.231275934937226
cycle= 5 E= -31.6369401105106  delta_E= -9.58e-06  |g|= 0.0004  |ddm|= 0.00763
    CPU time for cycle= 5      0.29 sec, wall time      0.29 sec
HOMO (E1gy) = -0.0584583998709824  LUMO (A1u) = 0.331151789251005
double occ irrep_nelec = [2, 0, 0, 1, 1, 1, 0, 0, 0, 0, 0, 0, 0, 0]
single occ irrep_nelec = [0, 1, 1, 0, 0, 0, 0, 0, 0, 0, 0, 0, 0, 0]
                  Roothaan           | alpha              | beta
  Highest 2-occ = -0.540328235815971 | -0.565989083725296 | -0.514517572912112
  Lowest 0-occ =   0.331151789251005 |  0.292054902028105 |  0.370297066077956
  1-occ =         -0.0584583998709828 | -0.123723837870132 | 0.00696591402481478
  1-occ =         -0.0584583998709824 | -0.123723837870132 | 0.0069659140248155
  Roothaan mo_energy =
[-1.58511367 -0.54032824  0.46941124  0.75009818  2.1119867   3.70835296
  5.83564513  8.35837468 15.58440617 -0.0584584   0.60504301  2.41711904
  3.34108594  6.34375546  8.84194571 -0.0584584   0.60504301  2.41711904
  3.34108594  6.34375546  8.84194571 -0.6730759   0.33115179  0.98216062
  1.17883396  2.65533862  3.91194361  6.48031689  8.33532604 27.98301843
 -0.63757382  0.40045623  1.57852191  2.80865689  5.06199484  7.15866306
 -0.63757382  0.40045623  1.57852191  2.80865689  5.06199484  7.15866306
  1.18525791  4.66673981  6.34512375  1.18489093  4.66671586  6.34510523
  5.52805092  5.52805092  1.84569481  6.5464916   6.77777986  1.84566669
  6.54661517  6.77668722  4.74248305  4.74248305]
nelec by numeric integration = [7.00000008 5.00000007]
    CPU time for vxc      0.23 sec, wall time      0.23 sec
    CPU time for df-vj      0.05 sec, wall time      0.05 sec
E1 = -92.60769369682819  Ecoul = 47.03480515719301  Exc = -7.231140039941757
cycle= 6 E= -31.6369401427769  delta_E= -3.23e-08  |g|= 4.19e-05  |ddm|= 0.000434
    CPU time for cycle= 6      0.28 sec, wall time      0.28 sec
HOMO (E1gy) = -0.0584491464244452  LUMO (A1u) = 0.331150743983254
double occ irrep_nelec = [2, 0, 0, 1, 1, 1, 0, 0, 0, 0, 0, 0, 0, 0]
single occ irrep_nelec = [0, 1, 1, 0, 0, 0, 0, 0, 0, 0, 0, 0, 0, 0]
                  Roothaan           | alpha              | beta
  Highest 2-occ = -0.540321238636958 |  -0.56604756134213 | -0.514576903188606
  Lowest 0-occ =   0.331150743983254 |   0.29204243320672 |  0.370264458178609
  1-occ =         -0.0584491464244465 | -0.123786562856268 | 0.00690635887619388
  1-occ =         -0.0584491464244452 | -0.123786562856266 | 0.00690635887619463
  Roothaan mo_energy =
[-1.58510193 -0.54032124  0.46940933  0.7501024   2.11199081  3.70835967
  5.8356552   8.35838277 15.58442037 -0.05844915  0.60504454  2.4171229
  3.34109323  6.34376227  8.8419542  -0.05844915  0.60504454  2.4171229
  3.34109323  6.34376227  8.8419542  -0.6730696   0.33115074  0.98216788
  1.17884092  2.6553473   3.91195045  6.48032398  8.33533865 27.98303474
 -0.63756551  0.40045847  1.57852592  2.80866506  5.06200445  7.15866987
 -0.63756551  0.40045847  1.57852592  2.80866506  5.06200445  7.15866987
  1.18526206  4.66674653  6.3451333   1.1848952   4.66672263  6.34511468
  5.52805761  5.52805761  1.84569919  6.54650096  6.77778687  1.84567095
  6.54662449  6.77669457  4.74248925  4.74248925]
nelec by numeric integration = [7.00000008 5.00000007]
    CPU time for vxc      0.22 sec, wall time      0.22 sec
    CPU time for df-vj      0.05 sec, wall time      0.05 sec
E1 = -92.60760798040664  Ecoul = 47.034703099407274  Exc = -7.231123698859873
cycle= 7 E= -31.6369401430592  delta_E= -2.82e-10  |g|= 3.47e-06  |ddm|= 4.14e-05
    CPU time for cycle= 7      0.28 sec, wall time      0.28 sec
HOMO (E1gy) = -0.0584471904958968  LUMO (A1u) = 0.331151264053443
double occ irrep_nelec = [2, 0, 0, 1, 1, 1, 0, 0, 0, 0, 0, 0, 0, 0]
single occ irrep_nelec = [0, 1, 1, 0, 0, 0, 0, 0, 0, 0, 0, 0, 0, 0]
                  Roothaan           | alpha              | beta
  Highest 2-occ = -0.540319386937797 | -0.566054661783376 | -0.514584112092214
  Lowest 0-occ =   0.331151264053443 |  0.292040714975952 |  0.370261813130948
  1-occ =         -0.0584471904958979 | -0.123793664534393 | 0.00689922952846497
  1-occ =         -0.0584471904958968 | -0.123793664534393 | 0.00689922952846657
  Roothaan mo_energy =
[-1.58509939 -0.54031939  0.46940988  0.75010372  2.11199211  3.70836143
  5.83565745  8.35838476 15.58442302 -0.05844719  0.60504538  2.4171241
  3.34109499  6.34376403  8.84195624 -0.05844719  0.60504538  2.4171241
  3.34109499  6.34376403  8.84195624 -0.67306784  0.33115126  0.98216969
  1.1788421   2.65534924  3.91195207  6.48032574  8.33534114 27.98303775
 -0.63756349  0.40045935  1.57852726  2.80866693  5.06200662  7.15867173
 -0.63756349  0.40045935  1.57852726  2.80866693  5.06200662  7.15867173
  1.1852634   4.66674832  6.3451355   1.18489654  4.66672442  6.34511686
  5.52805929  5.52805929  1.84570046  6.54650308  6.77778863  1.84567222
  6.54662663  6.77669634  4.74249091  4.74249091]
nelec by numeric integration = [7.00000008 5.00000007]
    CPU time for vxc      0.23 sec, wall time      0.23 sec
    CPU time for df-vj      0.05 sec, wall time      0.05 sec
E1 = -92.6075918532672  Ecoul = 47.03468386351337  Exc = -7.231120590105836
Extra cycle  E= -31.6369401430597  delta_E= -4.19e-13  |g|= 3.05e-06  |ddm|= 7.12e-06
    CPU time for scf_cycle      2.72 sec, wall time      2.72 sec
    CPU time for SCF      2.72 sec, wall time      2.72 sec
converged SCF energy = -31.6369401430597
Using Python 3.x
Wavefunction successfully saved to QMCPACK HDF5 Format
Use: "convert4qmc -pyscf  scf.h5" to generate QMCPACK input files
