  Input file(s): dmc.in.xml 

=====================================================
                    QMCPACK 3.11.9

       (c) Copyright 2003-  QMCPACK developers

                    Please cite:
 J. Kim et al. J. Phys. Cond. Mat. 30 195901 (2018)
      https://doi.org/10.1088/1361-648X/aab9c3

  Git branch: develop
  Last git commit: 48b4b8b3ac511cc0d0efd99c912003c6a184ffb0-dirty
  Last git commit date: Thu Sep 23 14:50:49 2021 -0500
  Last git commit subject: Merge pull request #3472 from Hyeondeok-Shin/deterministic_test
=====================================================
  Global options 

  Total number of MPI ranks = 1
  Number of MPI groups      = 1
  MPI group ID              = 0
  Number of ranks in group  = 1
  MPI ranks per node        = 1
  OMP 1st level threads     = 16
  OMP nested threading disabled or only 1 thread on the 2nd level

  Precision used in this calculation, see definitions in the manual:
  Base precision      = double
  Full precision      = double

  CPU only build
  Timer build option is enabled. Current timer level is coarse

  Input XML = dmc.in.xml

  Project = dmc
  date    = 2021-10-30 08:13:04 MDT
  host    = jemez

  hamiltonian has MPC. Will read density if it is found.


 Random Number
 -------------
  Offset for the random number seeds based on time: 752

  Range of prime numbers to use as seeds over processors and threads = 5737-5857


 Lattice
 -------
  Simulation cell radius   = 3.373161 bohr
  Wigner-Seitz cell radius = 3.373161 bohr

  Lattice (bohr):      6.7463223000      0.0000000000      0.0000000000
                       0.0000000000      6.7463223000      0.0000000000
                       0.0000000000      0.0000000000      6.7463223000

  Boundary Conditions:  p  p  p 

  Volume (bohr^3) = 307.0444532224

  Reciprocal vectors without 2*pi.
    g_1 =       0.1482289098      0.0000000000      0.0000000000
    g_2 =       0.0000000000      0.1482289098      0.0000000000
    g_3 =       0.0000000000      0.0000000000      0.1482289098

  Metric tensor in real-space.
    h_1 = 45.5128645755 0.0000000000 0.0000000000 
    h_2 = 0.0000000000 45.5128645755 0.0000000000 
    h_3 = 0.0000000000 0.0000000000 45.5128645755 

  Metric tensor in g-space.
    h_1 = 0.8674122794 0.0000000000 0.0000000000 
    h_2 = 0.0000000000 0.8674122794 0.0000000000 
    h_3 = 0.0000000000 0.0000000000 0.8674122794 

 Particle Set
 ------------
  Name: e   Offload : 

  Initializing the lattice by the global supercell
  All the species have the same mass 1.0000000000
  Long-range breakup parameters:
    rc*kc = 15.0000000000; rc = 3.3731611500; kc = 4.4468672954; tol = 0.0003000000

  Creating Structure Factor for periodic systems 4.4468672954
  KContainer initialised with cutoff 4.4468672954
   # of K-shell  = 21
   # of K points = 460

  Particle set size: 32


 Particle Set
 ------------
  Name: ion0   Offload : 

  Initializing the lattice by the global supercell
  All the species have the same mass 21894.7135905729
  Long-range breakup parameters:
    rc*kc = 15.0000000000; rc = 3.3731611500; kc = 4.4468672954; tol = 0.0003000000

  Creating Structure Factor for periodic systems 4.4468672954
  KContainer initialised with cutoff 4.4468672954
   # of K-shell  = 21
   # of K points = 460

  Particle set size: 8


 Many-body wavefunction
 -------------------
  Name: psi0   Tasking: no


   Single particle orbitals (SPO) collection
   -----------------------------------------
    Name: bspline   Type input: bspline

  Created SPOSet builder named 'bspline' of type bspline

     Single particle orbitals (SPO)
     ------------------------------
      Name: spo_ud   Type: spline   Builder class name: EinsplineSetBuilder

  TileMatrix = 
 [  1 -1  1
    1  1 -1
   -1  1  1 ]
  Reading 16 orbitals from HDF5 file.
  HDF5 orbital file version 2.1.0
  Reading orbital file in ESHDF format.
  ESHDF orbital file version 2.1.0
  Lattice = 
    [  3.373161  3.373161  0.000000
       0.000000  3.373161  3.373161
       3.373161  0.000000  3.373161 ]
  SuperLattice = 
    [  6.746322  0.000000  0.000000
       0.000000  6.746322  0.000000
       0.000000  0.000000  6.746322 ]
bands=8, elecs=32, spins=1, twists=16, muffin tins=0, core states=0
atomic orbital=0
Atom type(0) = 6
Atom type(1) = 6
  Read 115633 density G-vectors.
  EinsplineSetBuilder found density in the HDF5 file.
  Read 0 VHXC G-vectors.
TIMER  EinsplineSetBuilder::ReadOrbitalInfo 0.0179287799
TIMER  EinsplineSetBuilder::BroadcastOrbitalInfo 0.0000004499
Found 4 distinct supercell twists.
number of things
16
16
Super twist #0:  [   0.00000   0.00000   0.00000 ]
Super twist #1:  [   0.50000   0.00000   0.00000 ]
Super twist #2:  [   0.50000   0.50000   0.00000 ]
Super twist #3:  [   0.50000   0.50000   0.50000 ]
  Using supercell twist 0:  [   0.00000   0.00000   0.00000]
Sorting the bands now:
We will read 16 distinct orbitals.
There are 0 core states and 16 valence states.
    Using complex valued spline SPOs with complex single precision storage (C2C).
    Running on CPU.
    Using hybrid orbital representation.
BandInfoGroup::selectBands bigspace has 32 distinct orbitals 
BandInfoGroup::selectBands using distinct orbitals [0,16)
  Number of distinct bands 16
  First Band index 0
  First SPO index 0
  Size of SPOs 16
  ClassName = HybridSplineC2C
  Using complex einspline table
Hybrid orbital representation uses Consistent smoothing scheme and LEKS2018 smoothing function.
Reading atomic center info for hybrid representation
Parameters 'spline_radius' and 'spline_npoints' for group 0 as atom 0 are not specified.
  Based on default grid point distance 0.0200000000
  Setting 'spline_npoints' to 79
  Setting 'spline_radius' to 1.5600000000
MEMORY 0 MB allocated for the atomic radial splines in hybrid orbital representation
NumDistinctOrbitals 16 numOrbs = 16
B-spline mesh factor is 0.5000000000
B-spline mesh size is (22, 22, 22)
Maxmimum number of Gvecs 4312
  Using meshsize=                22                22                22
  vs input meshsize=                22                22                22
MEMORY 1 MB allocated for the coefficients in 3D spline orbital representation
Start transforming plane waves to 3D B-Splines.
Transforming band 0 on Rank 0
Transforming band 1 on Rank 0
Transforming band 2 on Rank 0
Transforming band 3 on Rank 0
Transforming band 4 on Rank 0
Transforming band 5 on Rank 0
Transforming band 6 on Rank 0
Transforming band 7 on Rank 0
Transforming band 8 on Rank 0
Transforming band 9 on Rank 0
Transforming band 10 on Rank 0
Transforming band 11 on Rank 0
Transforming band 12 on Rank 0
Transforming band 13 on Rank 0
Transforming band 14 on Rank 0
Transforming band 15 on Rank 0
  Time to gather the table = 0.0000004601
  Time to bcast the table = 0.0000002000
  SplineSetReader initialize_spline_pio 2.1405004689 sec
Time spent in creating B-spline SPOs 2.1811965760sec

   Single Slater determinant
   -------------------------

     Determinant
     -----------
      Name: updet   Spin group: 0   SPO name: spo_ud

      Setting delay_rank to default value 1
      Using rank-1 Sherman-Morrison Fahy update (SM1)
      Running on CPU.


     Determinant
     -----------
      Name: downdet   Spin group: 1   SPO name: spo_ud

      Setting delay_rank to default value 1
      Using rank-1 Sherman-Morrison Fahy update (SM1)
      Running on CPU.

  Added a fermionic WaveFunctionComponent SlaterDet

   Jastrow
   -------
    Name: J1   Type: One-Body   Function: bspline

    Radial function for element: C - e
     Number of parameters: 7
     Cusp: 0.0000000000
     Cutoff radius: 3.3700000000

     Name                        Value Type Recompute Use Index
     ---- ---------------------------- ---- --------- --- -----
     eC_0 (-3.362027e-01,0.000000e+00)    1         1  ON     0
     eC_1 (-2.702231e-01,0.000000e+00)    1         1  ON     1
     eC_2 (-2.178062e-01,0.000000e+00)    1         1  ON     2
     eC_3 (-1.504317e-01,0.000000e+00)    1         1  ON     3
     eC_4 (-8.876037e-02,0.000000e+00)    1         1  ON     4
     eC_5 (-3.981977e-02,0.000000e+00)    1         1  ON     5
     eC_6 (-1.091112e-02,0.000000e+00)    1         1  ON     6


   Jastrow
   -------
    Name: J2   Type: Two-Body   Function: bspline

    Radial function for species: u - u
     Number of parameters: 7
     Cusp: -0.25
     Cutoff radius: 3.37

     Name                        Value Type Recompute Use Index
     ---- ---------------------------- ---- --------- --- -----
     uu_0  (3.583893e-01,0.000000e+00)    1         1  ON     0
     uu_1  (2.626374e-01,0.000000e+00)    1         1  ON     1
     uu_2  (1.861859e-01,0.000000e+00)    1         1  ON     2
     uu_3  (1.229228e-01,0.000000e+00)    1         1  ON     3
     uu_4  (7.556924e-02,0.000000e+00)    1         1  ON     4
     uu_5  (3.943379e-02,0.000000e+00)    1         1  ON     5
     uu_6  (1.820982e-02,0.000000e+00)    1         1  ON     6

    Radial function for species: u - d
     Number of parameters: 7
     Cusp: -0.5
     Cutoff radius: 3.37

     Name                        Value Type Recompute Use Index
     ---- ---------------------------- ---- --------- --- -----
     ud_0  (5.632240e-01,0.000000e+00)    1         1  ON     0
     ud_1  (3.836955e-01,0.000000e+00)    1         1  ON     1
     ud_2  (2.534642e-01,0.000000e+00)    1         1  ON     2
     ud_3  (1.578133e-01,0.000000e+00)    1         1  ON     3
     ud_4  (9.206130e-02,0.000000e+00)    1         1  ON     4
     ud_5  (4.662954e-02,0.000000e+00)    1         1  ON     5
     ud_6  (2.104628e-02,0.000000e+00)    1         1  ON     6

  QMCHamiltonian::addOperator Kinetic to H, physical Hamiltonian 

 Hamiltonian and observables
 ---------------------------
  Name: h0


  Creating CoulombHandler with the Esler Optimized Breakup. 
  KContainer initialised with cutoff 27.9405
   # of K-shell  = 752
   # of K points = 112930

  NUMBER OF OPT_BREAK KVECS = 29180498243
 finding kc:  4.44687 , 4.44687
  LRBreakp parameter Kc =4.44687
    Continuum approximation in k = [27.9405,1778.75)

   LR Breakup chi^2 = 4.65690e-16
   PBCAA self-interaction term -14.536
   PBCAA total constant -22.22
  Maximum K shell 20
  Number of k vectors 460
  Fixed Coulomb potential for e
    e-e Madelung Const. =-0.20278
    Vtot     =0
  QMCHamiltonian::addOperator ElecElec to H, physical Hamiltonian 
QMCHamiltonian::addOperatorType added type coulomb named ElecElec
  Clone CoulombHandler. 
   PBCAA self-interaction term -58.144
   PBCAA total constant -65.828
Checking ion-ion Ewald energy against reference...
  Check passed.
  Maximum K shell 20
  Number of k vectors 460
  Fixed Coulomb potential for ion0
    e-e Madelung Const. =-0.20278
    Vtot     =-51.103
  QMCHamiltonian::addOperator IonIon to H, physical Hamiltonian 
QMCHamiltonian::addOperatorType added type coulomb named IonIon

  ECPotential builder for pseudopotential 

  Adding pseudopotential for C
   Linear grid  ri=0 rf=10 npts = 10001
    ECPComponentBuilder::buildSemiLocalAndLocal 
WARNING Nrule was not determined from qmcpack input or pseudopotential file. Setting sensible default.
    Assuming Hartree unit
   Number of angular momentum channels 2
   Maximum angular momentum channel 1
   Creating a Linear Grid Rmax=1.405
  Using global grid with delta = 0.001
   Making L=1 a local potential with a radial cutoff of 9.999
  Quadrature Nrule: 4
    Non-local pseudopotential parameters
    Maximum angular mementum = 0
    Number of non-local channels = 1
       l(0)=0
    Cutoff radius = 1.405
    Spherical grids and weights: 
                        1                 0                 0       0.08333333333
                       -1   1.224646799e-16                 0       0.08333333333
             0.4472135955       0.894427191                 0       0.08333333333
            -0.4472135955      0.7236067977      0.5257311121       0.08333333333
             0.4472135955      0.2763932023      0.8506508084       0.08333333333
            -0.4472135955     -0.2763932023      0.8506508084       0.08333333333
             0.4472135955     -0.7236067977      0.5257311121       0.08333333333
            -0.4472135955      -0.894427191   1.095357397e-16       0.08333333333
             0.4472135955     -0.7236067977     -0.5257311121       0.08333333333
            -0.4472135955     -0.2763932023     -0.8506508084       0.08333333333
             0.4472135955      0.2763932023     -0.8506508084       0.08333333333
            -0.4472135955      0.7236067977     -0.5257311121       0.08333333333
    Maximum cutoff radius 1.405
  Clone CoulombHandler. 
   Constant of PBCAB 15.36808481
  Rcut                3.37316115
  Maximum K shell     20
  Number of k vectors 460
    CoulombPBCAB::add 
 Setting a linear grid=[0,3.37316115) number of grid =3374
    Creating the short-range pseudopotential for species 0
  QMCHamiltonian::addOperator LocalECP to H, physical Hamiltonian 

  Using NonLocalECP potential 
    Maximum grid on a sphere for NonLocalECPotential: 12
  QMCHamiltonian::addOperator NonLocalECP to H, physical Hamiltonian 
QMCHamiltonian::addOperatorType added type pseudo named PseudoPot

  === Initializing MPC interaction === 
  Using 609 G-vectors for MPC interaction.
   Using real-space box of size [32,32,32] for MPC spline.
    Linear extrap    = 3.062287875839e-01
    Quadratic extrap = 3.062287875689e-01
    Worst MPC discrepancy:
      Linear Extrap   : -2.48667121981254e-04
      Quadratic Extrap: -2.48673391454602e-04
  Constant potential = 1.808191491528e+02
  === MPC interaction initialized === 

  QMCHamiltonian::addOperator MPC to auxH 
QMCHamiltonian::addOperatorType added type MPC named MPC
  QMCHamiltonian::addOperator KEcorr to auxH 
QMCHamiltonian::addOperatorType added type chiesa named KEcorr

  QMCHamiltonian::add2WalkerProperty added
    7 to P::PropertyList 
    0 to P::Collectables 
    starting Index of the observables in P::PropertyList = 9
ParticleSetPool::randomize 1 ParticleSet.
<init source="ion0" target="e">
</init>
  Initialization Execution time = 3.0457e+00 secs
=========================================================
 Summary of QMC systems 
=========================================================
ParticleSetPool has: 

  ParticleSet 'e' contains 32 particles :  u(16) d(16)

    u  1.7827617578e-01  5.6128884793e+00  2.2120424783e-01
    u  1.7816852280e-01  6.6552888719e+00  1.1512405624e+00
    u  1.4402080952e+00  2.8240397663e+00  1.7908548955e+00
    u  2.1501125935e+00  2.6793706460e+00  1.2805117536e+00
    u  3.4318203583e+00  3.6646769845e+00  5.6162941809e+00
    u  3.6787393687e+00  4.0587855683e+00  5.8508185067e+00
    u  6.0068032919e+00  5.0818080270e+00  2.3706663873e+00
    u  3.9437956951e+00  4.8832920353e+00  1.3883928658e+00
    u  6.9228665870e-01  3.6221171521e+00  4.2809860372e+00
    u  6.7283068212e+00  2.9645897116e+00  2.2785695564e+00
    (... and 22 more particle positions ...)

  Distance table for dissimilar particles (A-B):
    source: ion0  target: e
    Using structure-of-arrays (SoA) data layout
    Distance computations use orthorhombic periodic cell in 3D.

  Distance table for similar particles (A-A):
    source/target: e
    Using structure-of-arrays (SoA) data layout
    Distance computations use orthorhombic periodic cell in 3D.


  ParticleSet 'ion0' contains 8 particles :  C(8)

    C  0.0000000000e+00  0.0000000000e+00  0.0000000000e+00
    C  1.6865805800e+00  1.6865805800e+00  1.6865805800e+00
    C  3.3731611500e+00  3.3731611500e+00  0.0000000000e+00
    C  5.0597417200e+00  5.0597417200e+00  1.6865805800e+00
    C  0.0000000000e+00  3.3731611500e+00  3.3731611500e+00
    C  1.6865805800e+00  5.0597417200e+00  5.0597417200e+00
    C  3.3731611500e+00  0.0000000000e+00  3.3731611500e+00
    C  5.0597417200e+00  1.6865805700e+00  5.0597417200e+00

  Distance table for similar particles (A-A):
    source/target: ion0
    Using structure-of-arrays (SoA) data layout
    Distance computations use orthorhombic periodic cell in 3D.


  Hamiltonian h0
  Kinetic         Kinetic energy
  ElecElec        CoulombPBCAA potential: e_e
  IonIon          CoulombPBCAA potential: ion0_ion0
  LocalECP        CoulombPBCAB potential source: ion0
  NonLocalECP     NonLocalECPotential: ion0


=========================================================
  Start VMC
  File Root dmc.s000 append = no 
=========================================================
Resetting walkers
  Adding 16 walkers to 0 existing sets
  Total number of walkers: 1.6000000000e+01
  Total weight: 1.6000000000e+01
  Resetting Properties of the walkers 1 x 16

<vmc function="put">
  qmc_counter=0  my_counter=0
  time step      = 1.0000000000e-01
  blocks         = 500
  steps          = 8
  substeps       = 3
  current        = 0
  target samples = 2.0480000000e+03
  walkers/mpi    = 16

  stepsbetweensamples = 31
<parameter name="blocks">500</parameter>
<parameter name="blocks_between_recompute">0</parameter>
<parameter name="check_properties">100</parameter>
<parameter name="checkproperties">100</parameter>
<parameter name="current">0</parameter>
<parameter name="dmcwalkersperthread">1.2800000000e+02</parameter>
<parameter name="max_seconds">360000</parameter>
<parameter name="maxcpusecs">360000</parameter>
<parameter name="record_configs">0</parameter>
<parameter name="record_walkers">31</parameter>
<parameter name="recordconfigs">0</parameter>
<parameter name="recordwalkers">31</parameter>
<parameter name="samples">2.0480000000e+03</parameter>
<parameter name="samplesperthread">1.2800000000e+02</parameter>
<parameter name="spinmass">1.0000000000e+00</parameter>
<parameter name="steps">8</parameter>
<parameter name="stepsbetweensamples">31</parameter>
<parameter name="store_configs">0</parameter>
<parameter name="storeconfigs">0</parameter>
<parameter name="sub_steps">3</parameter>
<parameter name="substeps">3</parameter>
<parameter name="tau">1.0000000000e-01</parameter>
<parameter name="time_step">1.0000000000e-01</parameter>
<parameter name="timestep">1.0000000000e-01</parameter>
<parameter name="use_drift">yes</parameter>
<parameter name="usedrift">yes</parameter>
<parameter name="walkers">16</parameter>
<parameter name="warmup_steps">8</parameter>
<parameter name="warmupsteps">8</parameter>
  DumpConfig==false Nothing (configurations, state) will be saved.
  Walker Samples are dumped every 31 steps.
</vmc>
  Set drift_modifier UNR parameter a = 1.0000000000e+00
  Adding a default LocalEnergyEstimator for the MainEstimator 
  CloneManager::makeClones makes 16 clones for W/Psi/H.
  Cloning methods for both Psi and H are used
=========================================================
--- Memory usage report : Memory Usage before cloning ---
=========================================================
Available memory on node 0, free + buffers :   10724 MiB
Memory footprint by rank 0 on node 0       :     572 MiB
=========================================================
========================================================
--- Memory usage report : Memory Usage after cloning ---
========================================================
Available memory on node 0, free + buffers :   10720 MiB
Memory footprint by rank 0 on node 0       :     572 MiB
========================================================
  Initial partition of walkers 0 1 2 3 4 5 6 7 8 9 10 11 12 13 14 15 16 

  Using Particle by Particle moves
  Walker moves with drift
  Total Sample Size   =2048
  Walker distribution on root = 0 1 2 3 4 5 6 7 8 9 10 11 12 13 14 15 16 
  Using Locality Approximation
========================================================================
--- Memory usage report : Memory Usage after the buffer registration ---
========================================================================
Available memory on node 0, free + buffers :   10720 MiB
Memory footprint by rank 0 on node 0       :     572 MiB
========================================================================
  Anonymous Buffer size per walker : 63072 Bytes.
MEMORY increase 0 MB VMC::resetRun
====================================================
  SimpleFixedNodeBranch::finalize after a VMC block
    QMC counter        = 0
    time step          = 0.1
    reference energy   = -45.0242
    reference variance = 1.47273
====================================================
  QMC Execution time = 1.2469e+01 secs
  Total Execution time = 1.2469e+01 secs

=========================================================
  A new xml input file : dmc.s000.cont.xml

Use --enable-timers=<value> command line option to increase or decrease level of timing information
Stack timer profile
Timer      Inclusive_time  Exclusive_time  Calls       Time_per_call
Total        15.5152     0.0000              1      15.515170954
  Startup     3.0458     3.0458              1       3.045780430
  VMC        12.4693    12.4693              1      12.469346309

QMCPACK execution completed successfully
